Created by charmm2lammps v1.8.1 on Sun Feb  9 12:07:18 EST 2014

          19  atoms
          19  bonds
          37  angles
          49  dihedrals
           1  impropers

           9  atom types
          10  bond types
          20  angle types
          24  dihedral types
           1  improper types

      -1.266        2.932 xlo xhi
       -4.87        1.166 ylo yhi
       -1.35        1.671 zlo zhi

Masses

       1      1.008  # HRA2
       2      1.008  # HGA2
       3      1.008  # HGA3
       4     12.011  # CG2R53
       5     12.011  # CG321
       6     12.011  # CG331
       7     12.011  # CG3C52
       8     14.007  # NG2R53
       9    15.9994  # OG2D1

Pair Coeffs

       1      0.035   2.387609      0.035   2.387609  # HRA2
       2      0.035   2.387609      0.035   2.387609  # HGA2
       3      0.024   2.387609      0.024   2.387609  # HGA3
       4       0.02   3.919954       0.02   3.919954  # CG2R53
       5      0.056   3.581413       0.01   3.385415  # CG321
       6      0.078   3.652685       0.01   3.385415  # CG331
       7       0.06   3.599231       0.01   3.385415  # CG3C52
       8        0.2   3.296325        0.2   3.296325  # NG2R53
       9       0.12   3.029056       0.12   2.494516  # OG2D1

Atoms

       1       1     5     -0.07       1.106      -3.274      -0.502  # CG321
       2       1     2      0.09       0.148      -3.833      -0.691  # HGA2
       3       1     2      0.09       1.817      -3.492       -1.35  # HGA2
       4       1     6     -0.27       1.717      -3.768       0.805  # CG331
       5       1     3      0.09       1.863       -4.87       0.737  # HGA3
       6       1     3      0.09       1.047      -3.554       1.671  # HGA3
       7       1     3      0.09       2.705      -3.286       0.998  # HGA3
       8       1     8    -0.399       0.807      -1.869      -0.567  # NG2R53
       9       1     4     0.371        1.81      -0.899      -0.725  # CG2R53
      10       1     9     -0.49       2.932      -1.116      -1.199  # OG2D1
      11       1     7    -0.011       1.295        0.46       -0.26  # CG3C52
      12       1     1      0.09       1.269       1.166      -1.123  # HRA2
      13       1     1      0.09       1.998       0.862        0.51  # HRA2
      14       1     7    -0.188      -0.095       0.193       0.313  # CG3C52
      15       1     1      0.09      -0.878       0.765      -0.238  # HRA2
      16       1     1      0.09      -0.141       0.484       1.387  # HRA2
      17       1     7     0.067      -0.331      -1.328        0.16  # CG3C52
      18       1     1      0.09      -0.437      -1.812       1.169  # HRA2
      19       1     1      0.09      -1.266      -1.536      -0.427  # HRA2

Bond Coeffs

       1        300       1.53  # CG2R53   CG3C52  
       2        460       1.38  # CG2R53   NG2R53  
       3        570      1.235  # CG2R53   OG2D1   
       4      222.5      1.528  # CG321    CG331   
       5        309      1.111  # CG321    HGA2
       6        320       1.43  # CG321    NG2R53  
       7        322      1.111  # CG331    HGA3
       8        195       1.53  # CG3C52   CG3C52  
       9        307        1.1  # CG3C52   HRA2
      10        370       1.45  # CG3C52   NG2R53  

Bonds

       1       4       1       4  # CG321    CG331   
       2       5       1       2  # CG321    HGA2
       3       5       1       3  # CG321    HGA2
       4       7       4       5  # CG331    HGA3
       5       7       4       6  # CG331    HGA3
       6       7       4       7  # CG331    HGA3
       7       6       8       1  # CG321    NG2R53  
       8       2       8       9  # CG2R53   NG2R53  
       9       3       9      10  # CG2R53   OG2D1   
      10       1       9      11  # CG2R53   CG3C52  
      11       9      11      12  # CG3C52   HRA2
      12       9      11      13  # CG3C52   HRA2
      13       8      11      14  # CG3C52   CG3C52  
      14       9      14      15  # CG3C52   HRA2
      15       9      14      16  # CG3C52   HRA2
      16       8      14      17  # CG3C52   CG3C52  
      17       9      17      18  # CG3C52   HRA2
      18       9      17      19  # CG3C52   HRA2
      19      10      17       8  # CG3C52   NG2R53  

Angle Coeffs

       1         70      106.5          0          0  # CG2R53   CG3C52   CG3C52  
       2         58        111          0          0  # CG2R53   CG3C52   HRA2
       3         50        120          0          0  # CG2R53   NG2R53   CG321   
       4         75        111          0          0  # CG2R53   NG2R53   CG3C52  
       5       34.6      110.1      22.53      2.179  # CG321    CG331    HGA3
       6         50        116          0          0  # CG321    NG2R53   CG3C52  
       7       34.6      110.1      22.53      2.179  # CG331    CG321    HGA2
       8         70      113.5          0          0  # CG331    CG321    NG2R53  
       9         70      113.5          0          0  # CG331    CG321    NG2R53  
      10        120      105.5          0          0  # CG3C52   CG2R53   NG2R53  
      11         65      126.7          0          0  # CG3C52   CG2R53   OG2D1   
      12         58      109.5      11.16      2.561  # CG3C52   CG3C52   CG3C52  
      13         35      111.4      22.53      2.179  # CG3C52   CG3C52   HRA2
      14         90      104.5          0          0  # CG3C52   CG3C52   NG2R53  
      15       35.5        109        5.4      1.802  # HGA2 CG321    HGA2
      16         48        108          0          0  # HGA2 CG321    NG2R53  
      17       35.5      108.4        5.4      1.802  # HGA3 CG331    HGA3
      18       38.5      106.8        5.4      1.802  # HRA2 CG3C52   HRA2
      19         59        111          0          0  # HRA2 CG3C52   NG2R53  
      20         65      127.8          0          0  # NG2R53   CG2R53   OG2D1   

Angles

       1       6       1       8      17  # CG321    NG2R53   CG3C52  
       2       3       1       8       9  # CG2R53   NG2R53   CG321   
       3       5       1       4       7  # CG321    CG331    HGA3
       4       5       1       4       6  # CG321    CG331    HGA3
       5       5       1       4       5  # CG321    CG331    HGA3
       6      16       2       1       8  # HGA2 CG321    NG2R53  
       7      15       2       1       3  # HGA2 CG321    HGA2
       8      16       3       1       8  # HGA2 CG321    NG2R53  
       9       8       4       1       8  # CG331    CG321    NG2R53  
      10       9       4       1       8  # CG331    CG321    NG2R53  
      11       7       4       1       3  # CG331    CG321    HGA2
      12       7       4       1       2  # CG331    CG321    HGA2
      13      17       5       4       7  # HGA3 CG331    HGA3
      14      17       5       4       6  # HGA3 CG331    HGA3
      15      17       6       4       7  # HGA3 CG331    HGA3
      16      10       8       9      11  # CG3C52   CG2R53   NG2R53  
      17       1       9      11      14  # CG2R53   CG3C52   CG3C52  
      18       4       9       8      17  # CG2R53   NG2R53   CG3C52  
      19      11      10       9      11  # CG3C52   CG2R53   OG2D1   
      20      20      10       9       8  # NG2R53   CG2R53   OG2D1   
      21      12      11      14      17  # CG3C52   CG3C52   CG3C52  
      22      13      12      11      14  # CG3C52   CG3C52   HRA2
      23       2      12      11       9  # CG2R53   CG3C52   HRA2
      24      18      12      11      13  # HRA2 CG3C52   HRA2
      25      13      13      11      14  # CG3C52   CG3C52   HRA2
      26       2      13      11       9  # CG2R53   CG3C52   HRA2
      27      14      14      17       8  # CG3C52   CG3C52   NG2R53  
      28      13      15      14      17  # CG3C52   CG3C52   HRA2
      29      13      15      14      11  # CG3C52   CG3C52   HRA2
      30      18      15      14      16  # HRA2 CG3C52   HRA2
      31      13      16      14      17  # CG3C52   CG3C52   HRA2
      32      13      16      14      11  # CG3C52   CG3C52   HRA2
      33      19      18      17       8  # HRA2 CG3C52   NG2R53  
      34      13      18      17      14  # CG3C52   CG3C52   HRA2
      35      18      18      17      19  # HRA2 CG3C52   HRA2
      36      19      19      17       8  # HRA2 CG3C52   NG2R53  
      37      13      19      17      14  # CG3C52   CG3C52   HRA2

Dihedral Coeffs

       1       0.34          3        180          0  # CG2R53   CG3C52   CG3C52   CG3C52  
       2          0          3          0          1  # CG2R53   CG3C52   CG3C52   HRA2
       3        0.9          1          0          1  # CG2R53   NG2R53   CG321    CG331   
       4          0          1          0          1  # CG2R53   NG2R53   CG321    HGA2
       5       2.31          3        180          0  # CG2R53   NG2R53   CG3C52   CG3C52  
       6          0          3          0          1  # CG2R53   NG2R53   CG3C52   HRA2
       7       1.12          2        180          1  # CG321    NG2R53   CG2R53   CG3C52  
       8        2.5          2        180          1  # CG321    NG2R53   CG2R53   OG2D1   
       9       0.67          3          0          1  # CG321    NG2R53   CG3C52   CG3C52  
      10          0          3          0          1  # CG321    NG2R53   CG3C52   HRA2
      11          0          1          0          1  # CG331    CG321    NG2R53   CG3C52  
      12        0.4          2        180          0  # CG3C52   CG2R53   NG2R53   CG3C52  
      13       1.05          3        180          0  # CG3C52   CG3C52   CG2R53   NG2R53  
      14       0.08          3          0          1  # CG3C52   CG3C52   CG2R53   OG2D1   
      15       0.19          3          0          1  # CG3C52   CG3C52   CG3C52   HRA2
      16       2.13          3          0          0  # CG3C52   CG3C52   CG3C52   NG2R53  
      17       2.59          2        180          1  # CG3C52   NG2R53   CG2R53   OG2D1   
      18          0          1          0          1  # CG3C52   NG2R53   CG321    HGA2
      19       0.16          3          0          1  # HGA2 CG321    CG331    HGA3
      20        0.2          3          0          1  # HGA3 CG331    CG321    NG2R53  
      21          0          3        180          1  # HRA2 CG3C52   CG2R53   NG2R53  
      22          0          3          0          1  # HRA2 CG3C52   CG2R53   OG2D1   
      23       0.19          3          0          1  # HRA2 CG3C52   CG3C52   HRA2
      24          0          3        180          1  # HRA2 CG3C52   CG3C52   NG2R53  

Dihedrals

       1       8       1       8       9      10  # CG321    NG2R53   CG2R53   OG2D1   
       2       7       1       8       9      11  # CG321    NG2R53   CG2R53   CG3C52  
       3      10       1       8      17      18  # CG321    NG2R53   CG3C52   HRA2
       4      10       1       8      17      19  # CG321    NG2R53   CG3C52   HRA2
       5       9       1       8      17      14  # CG321    NG2R53   CG3C52   CG3C52  
       6      19       2       1       4       5  # HGA2 CG321    CG331    HGA3
       7      19       2       1       4       6  # HGA2 CG321    CG331    HGA3
       8      19       2       1       4       7  # HGA2 CG321    CG331    HGA3
       9       4       2       1       8       9  # CG2R53   NG2R53   CG321    HGA2
      10      18       2       1       8      17  # CG3C52   NG2R53   CG321    HGA2
      11      19       3       1       4       5  # HGA2 CG321    CG331    HGA3
      12      19       3       1       4       6  # HGA2 CG321    CG331    HGA3
      13      19       3       1       4       7  # HGA2 CG321    CG331    HGA3
      14       4       3       1       8       9  # CG2R53   NG2R53   CG321    HGA2
      15      18       3       1       8      17  # CG3C52   NG2R53   CG321    HGA2
      16       3       4       1       8       9  # CG2R53   NG2R53   CG321    CG331   
      17      11       4       1       8      17  # CG331    CG321    NG2R53   CG3C52  
      18      20       5       4       1       8  # HGA3 CG331    CG321    NG2R53  
      19      20       6       4       1       8  # HGA3 CG331    CG321    NG2R53  
      20      20       7       4       1       8  # HGA3 CG331    CG321    NG2R53  
      21      24       8      17      14      15  # HRA2 CG3C52   CG3C52   NG2R53  
      22      24       8      17      14      16  # HRA2 CG3C52   CG3C52   NG2R53  
      23      16       8      17      14      11  # CG3C52   CG3C52   CG3C52   NG2R53  
      24      21       8       9      11      12  # HRA2 CG3C52   CG2R53   NG2R53  
      25      21       8       9      11      13  # HRA2 CG3C52   CG2R53   NG2R53  
      26      13       8       9      11      14  # CG3C52   CG3C52   CG2R53   NG2R53  
      27       2       9      11      14      15  # CG2R53   CG3C52   CG3C52   HRA2
      28       2       9      11      14      16  # CG2R53   CG3C52   CG3C52   HRA2
      29       1       9      11      14      17  # CG2R53   CG3C52   CG3C52   CG3C52  
      30       6       9       8      17      18  # CG2R53   NG2R53   CG3C52   HRA2
      31       6       9       8      17      19  # CG2R53   NG2R53   CG3C52   HRA2
      32       5       9       8      17      14  # CG2R53   NG2R53   CG3C52   CG3C52  
      33      17      10       9       8      17  # CG3C52   NG2R53   CG2R53   OG2D1   
      34      22      10       9      11      12  # HRA2 CG3C52   CG2R53   OG2D1   
      35      22      10       9      11      13  # HRA2 CG3C52   CG2R53   OG2D1   
      36      14      10       9      11      14  # CG3C52   CG3C52   CG2R53   OG2D1   
      37      15      11      14      17      18  # CG3C52   CG3C52   CG3C52   HRA2
      38      15      11      14      17      19  # CG3C52   CG3C52   CG3C52   HRA2
      39      12      11       9       8      17  # CG3C52   CG2R53   NG2R53   CG3C52  
      40      23      12      11      14      15  # HRA2 CG3C52   CG3C52   HRA2
      41      23      12      11      14      16  # HRA2 CG3C52   CG3C52   HRA2
      42      15      12      11      14      17  # CG3C52   CG3C52   CG3C52   HRA2
      43      23      13      11      14      15  # HRA2 CG3C52   CG3C52   HRA2
      44      23      13      11      14      16  # HRA2 CG3C52   CG3C52   HRA2
      45      15      13      11      14      17  # CG3C52   CG3C52   CG3C52   HRA2
      46      23      15      14      17      18  # HRA2 CG3C52   CG3C52   HRA2
      47      23      15      14      17      19  # HRA2 CG3C52   CG3C52   HRA2
      48      23      16      14      17      18  # HRA2 CG3C52   CG3C52   HRA2
      49      23      16      14      17      19  # HRA2 CG3C52   CG3C52   HRA2

Improper Coeffs

       1         90          0  # CG2R53   CG3C52   NG2R53   OG2D1   

Impropers

       1       1       9      11       8      10  # CG2R53   CG3C52   NG2R53   OG2D1   

