ITEM: TIMESTEP
0
ITEM: NUMBER OF ATOMS
11502
ITEM: BOX BOUNDS pp pp pp
0 40.459
0 40.5479
0 89.4397
ITEM: ATOMS id mol type x y z ix iy iz 
8361 1071 16 3.12061 5.33601 2.23279 0 1 0 
8362 1072 16 2.85276 5.23741 6.43336 0 1 0 
9537 2247 16 4.47151 6.71687 4.35733 0 1 0 
9531 2241 16 4.38934 3.80858 4.6434 0 1 0 
8445 1155 16 5.97343 5.48672 2.357 0 1 0 
8446 1156 16 5.78159 5.27224 6.56107 0 1 0 
8356 1066 16 2.91542 2.463 6.49459 0 1 0 
8355 1065 16 3.05308 2.41305 2.38437 0 1 0 
8440 1150 16 5.63884 2.31955 6.58326 0 1 0 
8439 1149 16 5.91646 2.69039 2.51308 0 1 0 
9615 2325 16 7.40367 3.82838 4.77852 0 1 0 
9621 2331 16 7.43517 6.74117 4.62093 0 1 0 
9453 2163 16 1.60817 6.78705 4.32373 0 1 0 
9447 2157 16 1.55357 3.86703 4.44038 0 1 0 
9609 2319 16 4.51228 0.915955 4.4212 0 1 0 
9693 2403 16 7.50319 1.10224 4.47796 0 1 0 
9525 2235 16 1.64661 1.09801 4.51623 0 1 0 
9524 2234 16 1.68056 0.87891 0.479587 0 1 0 
9614 2324 16 7.26967 4.01168 0.315337 0 1 0 
9536 2246 16 4.56821 6.81295 0.373389 0 1 0 
9692 2402 16 7.47722 1.24112 0.220457 0 1 0 
9608 2318 16 4.62638 0.904644 0.234316 0 1 0 
9446 2156 16 1.47181 3.68517 0.245489 0 1 0 
9530 2240 16 4.48295 3.93039 0.282949 0 1 0 
9452 2162 16 1.68936 6.71021 0.340947 0 1 0 
9620 2330 16 7.37458 6.87464 0.29277 0 1 0 
8278 988 16 0.0500265 5.27465 6.49777 0 1 0 
8271 981 16 0.103377 2.53741 2.38383 0 1 0 
8272 982 16 0.0332854 2.33375 6.60119 0 1 0 
9704 2414 16 10.1138 6.79732 0.188128 0 1 0 
8524 1234 16 8.98893 2.29773 6.61453 0 1 0 
8529 1239 16 8.83275 5.42305 2.48928 0 1 0 
8530 1240 16 8.72664 5.2935 6.58789 0 1 0 
8523 1233 16 8.79647 2.66628 2.46123 0 1 0 
9705 2415 16 10.272 6.70421 4.50555 0 1 0 
8614 1324 16 11.8202 5.42239 6.62028 0 1 0 
8613 1323 16 11.7486 5.5139 2.32045 0 1 0 
9789 2499 16 13.1039 6.74431 4.52469 0 1 0 
9699 2409 16 10.3308 3.91236 4.58476 0 1 0 
9783 2493 16 13.0267 3.74261 4.39386 0 1 0 
8608 1318 16 11.5804 2.48682 6.56859 0 1 0 
8607 1317 16 11.7597 2.52921 2.4054 0 1 0 
8698 1408 16 14.6203 5.35408 6.59888 0 1 0 
8697 1407 16 14.5802 5.28249 2.37567 0 1 0 
8704 1414 16 14.4996 8.06645 6.65707 0 1 0 
8692 1402 16 14.5395 2.43149 6.79919 0 1 0 
8691 1401 16 14.665 2.55493 2.23518 0 1 0 
9777 2487 16 10.2841 1.0044 4.34255 0 1 0 
9861 2571 16 13.0146 1.03301 4.56912 0 1 0 
9782 2492 16 13.2192 4.04232 0.36186 0 1 0 
9944 2654 16 16.0636 1.18115 0.205068 0 1 0 
9776 2486 16 10.1171 1.08405 0.106484 0 1 0 
9872 2582 16 15.7253 6.94444 0.256249 0 1 0 
9788 2498 16 12.8676 6.77398 0.083698 0 1 0 
9945 2655 16 15.8596 1.12767 4.36706 0 1 0 
9867 2577 16 15.8565 4.02383 4.46828 0 1 0 
9873 2583 16 16.0924 6.85598 4.4832 0 1 0 
9866 2576 16 15.8903 4.04665 0.122132 0 1 0 
9698 2408 16 10.05 3.8894 0.369216 0 1 0 
9860 2570 16 13.0769 1.17034 0.228477 0 1 0 
10028 2738 16 18.7453 0.832401 0.392212 0 1 0 
8781 1491 16 17.2976 5.40773 2.10999 0 1 0 
8775 1485 16 17.5474 2.57362 2.23841 0 1 0 
8782 1492 16 17.5455 5.39337 6.61888 0 1 0 
8776 1486 16 17.4102 2.44108 6.52911 0 1 0 
9957 2667 16 19.0275 6.70101 4.48715 0 1 0 
8866 1576 16 20.3704 5.08546 6.64073 0 1 0 
8865 1575 16 20.167 5.23604 2.22432 0 1 0 
8872 1582 16 20.2049 8.04496 6.44259 0 1 0 
9951 2661 16 18.7148 4.00661 4.42461 0 1 0 
10035 2745 16 21.5836 3.95402 4.2925 0 1 0 
10041 2751 16 21.7687 6.73547 4.39144 0 1 0 
8859 1569 16 20.273 2.29603 2.40309 0 1 0 
8860 1570 16 20.1437 2.43967 6.55602 0 1 0 
8944 1654 16 23.1848 2.56328 6.47432 0 1 0 
8943 1653 16 23.2069 2.4224 2.5779 0 1 0 
8950 1660 16 23.3293 5.28376 6.57092 0 1 0 
8949 1659 16 23.1858 5.4139 2.45381 0 1 0 
10029 2739 16 18.9359 0.841058 4.47684 0 1 0 
10113 2823 16 21.7492 1.02489 4.49327 0 1 0 
9950 2660 16 18.8471 3.92259 0.266613 0 1 0 
10112 2822 16 21.7502 0.99364 0.198831 0 1 0 
10040 2750 16 21.7589 6.79218 0.400037 0 1 0 
10034 2744 16 21.7282 3.64977 0.347615 0 1 0 
9956 2666 16 18.686 7.00144 0.262549 0 1 0 
10197 2907 16 24.6036 0.899213 4.52807 0 1 0 
10196 2906 16 24.7359 1.10183 0.441087 0 1 0 
10125 2835 16 24.7788 6.78232 4.4144 0 1 0 
10118 2828 16 24.8692 3.86315 0.228514 0 1 0 
10119 2829 16 24.4218 3.95501 4.42844 0 1 0 
9033 1743 16 26.2673 5.21887 2.44103 -1 1 0 
9034 1744 16 26.0206 5.19248 6.68934 -1 1 0 
10209 2919 16 27.4337 6.86566 4.42405 -1 1 0 
9117 1827 16 29.0579 5.19472 2.55263 -1 1 0 
9118 1828 16 28.9875 5.38243 6.47289 -1 1 0 
10203 2913 16 27.4932 3.80961 4.65224 -1 1 0 
9027 1737 16 26.1014 2.5486 2.6291 -1 1 0 
9112 1822 16 29.0561 2.46176 6.53045 -1 1 0 
9111 1821 16 28.9241 2.45017 2.52654 -1 1 0 
9028 1738 16 26.0666 2.43866 6.78838 -1 1 0 
10287 2997 16 30.483 3.89996 4.43195 -1 1 0 
10293 3003 16 30.4527 6.97388 4.42611 -1 1 0 
9202 1912 16 31.8755 5.3219 6.42763 -1 1 0 
9195 1905 16 31.9725 2.71522 2.41792 -1 1 0 
9196 1906 16 31.9026 2.55467 6.57527 -1 1 0 
9201 1911 16 31.8888 5.58464 2.40234 -1 1 0 
10365 3075 16 30.4399 1.0209 4.42392 -1 1 0 
10281 2991 16 27.4761 0.965485 4.67617 -1 1 0 
10202 2912 16 27.5674 3.89134 0.364489 -1 1 0 
10280 2990 16 27.6324 1.11301 0.502638 -1 1 0 
10292 3002 16 30.2963 6.66505 0.342789 -1 1 0 
10286 2996 16 30.5097 3.80632 0.393182 -1 1 0 
10208 2918 16 27.4379 7.08542 0.430148 -1 1 0 
10124 2834 16 24.563 7.00479 0.405135 0 1 0 
10364 3074 16 30.3564 1.12805 0.394093 -1 1 0 
8277 987 16 40.454 5.41919 2.26935 -1 1 0 
10449 3159 16 33.4575 1.10201 4.25315 -1 1 0 
10371 3081 16 33.3878 3.92413 4.40037 -1 1 0 
10377 3087 16 33.3 6.94148 4.30099 -1 1 0 
9363 2073 16 38.9733 3.66493 4.46892 -1 1 0 
9369 2079 16 39.2568 6.59929 4.42654 -1 1 0 
8194 904 16 37.7334 5.37598 6.42573 -1 1 0 
9285 1995 16 36.4008 6.8931 4.398 -1 1 0 
8110 820 16 34.785 5.32546 6.54847 -1 1 0 
8115 825 16 34.778 8.07545 2.29077 -1 1 0 
8109 819 16 34.8082 5.265 2.5126 -1 1 0 
8193 903 16 37.5616 5.27684 2.51161 -1 1 0 
9279 1989 16 36.1009 3.8054 4.68111 -1 1 0 
8188 898 16 37.7645 2.42445 6.60321 -1 1 0 
8187 897 16 37.8149 2.486 2.34509 -1 1 0 
8104 814 16 34.6483 2.49296 6.60042 -1 1 0 
8103 813 16 35.1176 2.23932 2.45612 -1 1 0 
9441 2151 16 39.136 0.985887 4.52122 -1 1 0 
9357 2067 16 36.4198 0.930628 4.65716 -1 1 0 
10370 3080 16 33.4382 3.80217 0.453501 -1 1 0 
9362 2072 16 39.2101 4.01723 0.226405 -1 1 0 
10448 3158 16 33.5667 1.10412 0.230574 -1 1 0 
9440 2150 16 39.3693 1.03296 0.216064 -1 1 0 
9368 2078 16 39.1332 6.79957 0.298115 -1 1 0 
10376 3086 16 33.1425 6.70581 0.296084 -1 1 0 
9278 1988 16 36.2028 3.86799 0.399007 -1 1 0 
9284 1994 16 36.2547 6.62885 0.24066 -1 1 0 
9356 2066 16 36.5629 1.04798 0.332462 -1 1 0 
8368 1078 16 3.06465 8.30016 6.35079 0 1 0 
8367 1077 16 3.11326 8.1303 2.30657 0 1 0 
8452 1162 16 5.93276 8.12877 6.64181 0 1 0 
8451 1161 16 5.91007 8.4862 2.38466 0 1 0 
9627 2337 16 7.32211 9.52013 4.52586 0 1 0 
9543 2253 16 4.51743 9.78598 4.45315 0 1 0 
9459 2169 16 1.65365 9.6613 4.52325 0 1 0 
9626 2336 16 7.3144 9.81149 0.38334 0 1 0 
9458 2168 16 1.54483 9.50505 0.136679 0 1 0 
9542 2252 16 4.4493 9.85426 0.218317 0 1 0 
8284 994 16 0.22726 8.24953 6.44893 0 1 0 
8283 993 16 0.225907 8.30011 2.2832 0 1 0 
8374 1084 16 3.04802 11.2065 6.74384 0 0 0 
8373 1083 16 3.02835 11.0135 2.37538 0 0 0 
8458 1168 16 5.82608 11.1355 6.51406 0 0 0 
8457 1167 16 5.77364 11.3468 2.09515 0 0 0 
9549 2259 16 4.48991 12.6076 4.60407 0 0 0 
8380 1090 16 2.93845 14.0967 6.50918 0 0 0 
8379 1089 16 3.13217 13.8684 2.30855 0 0 0 
9555 2265 16 4.28185 15.4504 4.27562 0 0 0 
8463 1173 16 5.79638 14.2789 2.31506 0 0 0 
8464 1174 16 5.95485 13.9855 6.57832 0 0 0 
9639 2349 16 7.41559 15.4204 4.33959 0 0 0 
9633 2343 16 7.17515 12.5964 4.20555 0 0 0 
9465 2175 16 1.54732 12.4829 4.3927 0 0 0 
9471 2181 16 1.40642 15.3042 4.34628 0 0 0 
9554 2264 16 4.60786 15.4346 0.0968681 0 0 0 
9464 2174 16 1.58914 12.4631 0.206362 0 0 0 
9470 2180 16 1.5104 15.4114 0.330951 0 0 0 
9632 2342 16 7.24871 12.6318 0.0894193 0 0 0 
9638 2348 16 7.29196 15.4298 0.279772 0 0 0 
8296 1006 16 0.0264986 13.877 6.5465 0 0 0 
8289 999 16 0.137781 11.1928 2.40302 0 0 0 
8290 1000 16 0.110967 11.0737 6.44811 0 0 0 
8295 1005 16 0.136578 13.8905 2.24491 0 0 0 
9548 2258 16 4.37494 12.6825 0.0109337 0 0 0 
8536 1246 16 8.80757 8.24836 6.645 0 1 0 
8535 1245 16 8.71053 8.25956 2.29651 0 1 0 
8619 1329 16 11.6047 8.27051 2.25067 0 1 0 
8620 1330 16 11.6583 8.39582 6.66684 0 1 0 
8703 1413 16 14.3701 8.17977 2.33939 0 1 0 
9711 2421 16 10.3292 9.57976 4.38361 0 1 0 
9795 2505 16 13.2012 9.77491 4.48141 0 1 0 
9879 2589 16 15.9997 9.77839 4.75861 0 1 0 
9710 2420 16 10.2956 9.57975 0.175904 0 1 0 
9794 2504 16 13.0211 9.62579 0.33887 0 1 1 
9878 2588 16 15.7949 9.70719 0.233923 0 1 0 
9884 2594 16 15.9926 12.6045 0.230932 0 0 0 
8541 1251 16 8.81259 11.0051 2.36006 0 0 0 
8547 1257 16 8.94162 13.8358 2.23585 0 0 0 
8548 1258 16 8.73052 13.8499 6.63712 0 0 0 
8542 1252 16 8.82521 10.9776 6.50329 0 0 0 
8710 1420 16 14.3872 11.1131 6.50291 0 0 0 
8625 1335 16 11.5749 11.1777 2.31509 0 0 0 
8626 1336 16 11.69 11.0409 6.57155 0 0 0 
8709 1419 16 14.5182 11.1649 2.39545 0 0 0 
9801 2511 16 12.8481 12.5186 4.38962 0 0 0 
9717 2427 16 10.0465 12.5034 4.53583 0 0 0 
8632 1342 16 11.6553 13.9706 6.55708 0 0 0 
8631 1341 16 11.7308 14.1279 2.34807 0 0 0 
9723 2433 16 10.2043 15.4366 4.34132 0 0 0 
9807 2517 16 13.1586 15.6793 4.4074 0 0 0 
8715 1425 16 14.4876 14.0515 2.28965 0 0 0 
8716 1426 16 14.4423 14.1927 6.38395 0 0 0 
9716 2426 16 10.2619 12.5953 0.184294 0 0 0 
9800 2510 16 13.1286 12.4714 0.0609763 0 0 0 
9722 2432 16 10.2325 15.5491 0.240569 0 0 0 
9891 2601 16 16.096 15.617 4.32148 0 0 0 
9885 2595 16 15.8742 12.7752 4.44779 0 0 0 
9890 2600 16 15.8741 15.4777 0.320636 0 0 0 
9806 2516 16 13.0486 15.4053 0.00774353 0 0 0 
8787 1497 16 17.2889 8.20785 2.36468 0 1 0 
8788 1498 16 17.3567 8.27616 6.57314 0 1 0 
8871 1581 16 20.0713 8.16015 2.36032 0 1 0 
8956 1666 16 23.0374 8.16758 6.4111 0 1 0 
8955 1665 16 23.1113 8.24777 2.46786 0 1 0 
10047 2757 16 21.733 9.7582 4.28534 0 1 0 
9963 2673 16 18.7398 9.45244 4.37527 0 1 0 
9962 2672 16 18.6431 9.73036 0.251765 0 1 0 
10046 2756 16 21.5031 9.5589 0.388319 0 1 0 
8878 1588 16 20.3378 11.0195 6.52476 0 0 0 
8793 1503 16 17.2907 11.1873 2.28538 0 0 0 
8794 1504 16 17.5557 11.2447 6.6547 0 0 0 
8961 1671 16 23.1412 11.248 2.33478 0 0 0 
8962 1672 16 23.2785 11.1347 6.48679 0 0 0 
8877 1587 16 19.9953 10.9904 2.44553 0 0 0 
8800 1510 16 17.3582 14.0264 6.40386 0 0 0 
8799 1509 16 17.3938 14.0099 2.24664 0 0 0 
9969 2679 16 18.7232 12.3096 4.41151 0 0 0 
10053 2763 16 21.7426 12.4887 4.53802 0 0 0 
8883 1593 16 20.2576 13.9956 2.49915 0 0 0 
8884 1594 16 20.2604 13.9111 6.31001 0 0 0 
9975 2685 16 18.8355 15.4585 4.52401 0 0 0 
10059 2769 16 21.676 15.3546 4.42842 0 0 0 
8967 1677 16 23.1386 13.9275 2.50086 0 0 0 
8968 1678 16 23.1811 13.9892 6.64994 0 0 0 
9968 2678 16 18.6992 12.6677 0.202491 0 0 0 
10058 2768 16 21.5781 15.4685 0.254855 0 0 0 
10052 2762 16 21.5913 12.5558 0.371577 0 0 0 
9974 2684 16 18.7021 15.4427 0.173608 0 0 0 
10131 2841 16 24.6185 9.73501 4.47455 0 1 0 
9039 1749 16 26.0253 8.38376 2.41455 -1 1 0 
9040 1750 16 25.9481 8.14108 6.65637 -1 1 0 
9123 1833 16 28.7854 8.24175 2.51849 -1 1 0 
9124 1834 16 29.1157 8.25462 6.45482 -1 1 0 
9208 1918 16 32.0005 8.21161 6.41803 -1 1 0 
9207 1917 16 31.8693 8.3462 2.24108 -1 1 0 
10215 2925 16 27.4227 9.84587 4.55013 -1 1 0 
10299 3009 16 30.3394 9.72342 4.28073 -1 1 0 
10214 2924 16 27.5275 9.78923 0.431652 -1 1 0 
10298 3008 16 30.335 9.61987 0.364379 -1 1 0 
10130 2840 16 24.4185 9.8764 0.336488 0 1 0 
10136 2846 16 24.6529 12.7215 0.446926 0 0 0 
10220 2930 16 27.4332 12.6288 0.466574 -1 0 0 
10143 2853 16 24.8839 15.5659 4.35071 0 0 0 
10137 2847 16 24.6386 12.6698 4.47938 0 0 0 
9129 1839 16 28.8205 11.1923 2.48444 -1 0 0 
9130 1840 16 29.0003 11.2096 6.55325 -1 0 0 
9046 1756 16 26.0206 11.0546 6.66792 -1 0 0 
9213 1923 16 31.8615 11.2235 2.30752 -1 0 0 
9214 1924 16 31.6902 11.1103 6.49026 -1 0 0 
9045 1755 16 26.0744 11.1763 2.45411 -1 0 0 
10221 2931 16 27.4505 12.655 4.68413 -1 0 0 
9136 1846 16 28.9398 14.0709 6.4988 -1 0 0 
9052 1762 16 26.062 14.1332 6.58682 -1 0 0 
9135 1845 16 28.887 14.2863 2.51518 -1 0 0 
9051 1761 16 26.0089 14.193 2.43862 -1 0 0 
10227 2937 16 27.5479 15.6724 4.46917 -1 0 0 
10311 3021 16 30.4393 15.79 4.66595 -1 0 0 
10305 3015 16 30.563 12.6612 4.38381 -1 0 0 
9219 1929 16 31.7346 14.3571 2.48967 -1 0 0 
9220 1930 16 31.8737 14.0812 6.47638 -1 0 0 
10226 2936 16 27.4507 15.6056 0.561916 -1 0 0 
10310 3020 16 30.2364 15.5347 0.367096 -1 0 0 
10142 2852 16 24.4345 15.5982 0.504349 0 0 0 
10304 3014 16 30.317 12.5108 0.303583 -1 0 0 
8199 909 16 37.6729 8.22432 2.27266 -1 1 0 
8200 910 16 37.7123 8.25049 6.58633 -1 1 0 
8116 826 16 34.7597 8.38873 6.72824 -1 1 0 
9375 2085 16 39.0209 9.58607 4.41335 -1 1 0 
10383 3093 16 33.39 9.62736 4.34216 -1 1 0 
9290 2000 16 36.1827 9.65815 0.290957 -1 1 0 
10382 3092 16 33.4499 9.6897 0.416037 -1 1 0 
9291 2001 16 36.1617 9.72317 4.51301 -1 1 0 
9374 2084 16 39.0081 9.67919 0.111537 -1 1 0 
9380 2090 16 39.0804 12.5835 0.306638 -1 0 0 
9386 2096 16 39.0844 15.641 0.146611 -1 0 0 
10389 3099 16 33.2888 12.7367 4.21067 -1 0 0 
10395 3105 16 33.5513 15.6322 4.3649 -1 0 0 
8121 831 16 34.7451 11.2481 2.42374 -1 0 0 
8206 916 16 37.7582 11.065 6.54394 -1 0 0 
8205 915 16 37.6083 10.9511 2.44815 -1 0 0 
8122 832 16 34.5405 11.1122 6.3284 -1 0 0 
9381 2091 16 39.2187 12.7867 4.40783 -1 0 0 
9387 2097 16 39.0374 15.6199 4.491 -1 0 0 
9297 2007 16 36.2704 12.5608 4.51763 -1 0 0 
8212 922 16 37.6816 13.9317 6.61771 -1 0 0 
8127 837 16 34.9211 14.0527 2.44361 -1 0 0 
8211 921 16 37.7455 14.1582 2.35775 -1 0 0 
8128 838 16 34.7585 14.0658 6.41879 -1 0 0 
9303 2013 16 36.2712 15.6256 4.57849 -1 0 0 
10388 3098 16 33.3522 12.6146 0.236675 -1 0 0 
9296 2006 16 36.0925 12.6592 0.534456 -1 0 0 
9302 2012 16 35.8463 15.5344 0.443736 -1 0 0 
10394 3104 16 33.0985 15.685 0.335013 -1 0 0 
9476 2186 16 1.56722 18.3429 0.191394 0 0 0 
8385 1095 16 3.07366 16.6448 2.26251 0 0 0 
8386 1096 16 2.81811 16.8722 6.58757 0 0 0 
9561 2271 16 4.17345 18.2137 4.51879 0 0 0 
8469 1179 16 5.81637 17.1144 2.29572 0 0 0 
8470 1180 16 5.8385 17.0051 6.51802 0 0 0 
9645 2355 16 7.31078 18.2927 4.49995 0 0 0 
9477 2187 16 1.47074 18.3783 4.41732 0 0 0 
9644 2354 16 7.25678 18.3804 0.198549 0 0 0 
9560 2270 16 4.51311 18.3121 0.25637 0 0 0 
8476 1186 16 5.99319 19.8664 6.55266 0 0 0 
8391 1101 16 2.94485 19.6058 2.39484 0 0 0 
8475 1185 16 5.81212 19.7926 2.38653 0 0 0 
8302 1012 16 0.00315132 16.9431 6.47492 0 0 0 
8301 1011 16 0.106089 16.8075 2.34987 0 0 0 
8392 1102 16 2.96723 19.754 6.77707 0 0 0 
8308 1018 16 0.16746 19.7501 6.79347 0 0 0 
8307 1017 16 0.162527 19.9145 2.51732 0 0 0 
9573 2283 16 4.40952 24.173 4.51476 0 0 0 
8481 1191 16 5.81254 22.57 2.4244 0 0 0 
8482 1192 16 5.74875 22.6605 6.64023 0 0 0 
8398 1108 16 3.05617 22.6244 6.54597 0 0 0 
8397 1107 16 2.9078 22.7424 2.48369 0 0 0 
9657 2367 16 7.19331 23.9649 4.62555 0 0 0 
9489 2199 16 1.47033 24.1177 4.43362 0 0 0 
9483 2193 16 1.50244 21.2375 4.63668 0 0 0 
9651 2361 16 7.37409 21.136 4.52638 0 0 0 
9567 2277 16 4.19248 21.2577 4.42626 0 0 0 
9566 2276 16 4.37338 21.1912 0.35524 0 0 0 
9482 2192 16 1.36482 21.2092 0.461545 0 0 0 
9656 2366 16 7.29797 24.137 0.420851 0 0 0 
9488 2198 16 1.44815 24.1569 0.376665 0 0 0 
9650 2360 16 7.1295 21.2445 0.369432 0 0 0 
9572 2282 16 4.3574 24.2709 0.38504 0 0 0 
8313 1023 16 0.145827 22.7883 2.52134 0 0 0 
8314 1024 16 0.390607 22.9145 6.76279 0 0 0 
9728 2438 16 10.1146 18.3358 0.26602 0 0 0 
8554 1264 16 8.6264 16.787 6.51176 0 0 0 
8553 1263 16 8.72965 16.9931 2.17674 0 0 0 
9729 2439 16 10.2115 18.2236 4.38163 0 0 0 
8638 1348 16 11.5863 16.9292 6.35134 0 0 0 
8637 1347 16 11.7241 17.0114 2.17648 0 0 0 
9813 2523 16 13.2315 18.3947 4.47235 0 0 0 
8721 1431 16 14.5039 16.9984 2.19707 0 0 0 
8722 1432 16 14.7336 16.946 6.59954 0 0 0 
8643 1353 16 11.5525 19.831 2.59231 0 0 0 
9812 2522 16 13.1074 18.4407 0.214966 0 0 0 
8728 1438 16 14.6271 19.8125 6.5969 0 0 0 
8644 1354 16 11.627 19.9463 6.73455 0 0 0 
8559 1269 16 8.69354 19.8333 2.47105 0 0 0 
8560 1270 16 8.8488 19.6921 6.44551 0 0 0 
8727 1437 16 14.5683 19.6963 2.35346 0 0 0 
9897 2607 16 16.149 18.414 4.34914 0 0 0 
9896 2606 16 15.9094 18.339 0.129813 0 0 0 
8565 1275 16 8.6923 22.5949 2.40897 0 0 0 
8566 1276 16 8.82857 22.5906 6.53785 0 0 0 
9825 2535 16 13.0947 24.0645 4.53332 0 0 0 
8650 1360 16 11.7685 22.7979 6.61689 0 0 0 
8649 1359 16 11.6729 22.6148 2.54558 0 0 0 
8733 1443 16 14.569 22.7634 2.34964 0 0 0 
8734 1444 16 14.5417 22.711 6.41467 0 0 0 
9909 2619 16 16.002 24.1603 4.56166 0 0 0 
9735 2445 16 10.0371 21.3454 4.44956 0 0 0 
9819 2529 16 13.0744 21.1435 4.50489 0 0 0 
9740 2450 16 9.99101 23.9934 0.338218 0 0 0 
9824 2534 16 13.0051 23.9744 0.339373 0 0 0 
9818 2528 16 12.8091 21.1692 0.361124 0 0 0 
9908 2618 16 15.9708 24.1413 0.351018 0 0 0 
9902 2612 16 15.825 21.1519 0.283422 0 0 0 
9734 2444 16 10.0544 21.1254 0.351545 0 0 0 
9903 2613 16 15.8998 21.2714 4.50638 0 0 0 
8811 1521 16 17.5388 20.0328 2.42978 0 0 0 
8979 1689 16 23.0986 19.991 2.6283 0 0 0 
8805 1515 16 17.3318 17.0574 2.30319 0 0 0 
8806 1516 16 17.5972 16.8892 6.52097 0 0 0 
9981 2691 16 18.8435 18.2644 4.35075 0 0 0 
8889 1599 16 20.1515 16.895 2.32343 0 0 0 
8890 1600 16 20.4702 16.7817 6.4993 0 0 0 
10065 2775 16 21.6198 18.4159 4.62507 0 0 0 
8973 1683 16 22.8938 17.0732 2.64237 0 0 0 
8974 1684 16 23.2275 16.8752 6.6352 0 0 0 
8812 1522 16 17.3225 19.7362 6.45354 0 0 0 
8895 1605 16 20.2749 19.7739 2.27948 0 0 0 
10064 2774 16 21.8037 18.4357 0.428449 0 0 0 
8896 1606 16 20.1829 19.7709 6.61997 0 0 0 
8980 1690 16 23.23 19.9703 6.47158 0 0 0 
9980 2690 16 18.7665 18.3923 0.41593 0 0 0 
8817 1527 16 17.352 22.9034 2.56445 0 0 0 
8818 1528 16 17.5508 22.606 6.55233 0 0 0 
9993 2703 16 18.9121 24.2096 4.47112 0 0 0 
8901 1611 16 20.2168 22.6651 2.48567 0 0 0 
8902 1612 16 20.3781 22.7152 6.70377 0 0 0 
8985 1695 16 23.1155 22.9694 2.51589 0 0 0 
8986 1696 16 23.1814 22.791 6.79444 0 0 0 
10071 2781 16 21.9242 21.4623 4.6715 0 0 0 
9987 2697 16 18.8873 21.2983 4.57107 0 0 0 
10076 2786 16 21.7326 24.1998 0.252512 0 0 0 
9986 2696 16 18.6645 21.3043 0.147983 0 0 0 
10070 2780 16 21.6985 21.3685 0.542366 0 0 0 
9992 2702 16 18.9117 24.008 0.463468 0 0 0 
10232 2942 16 27.5567 18.5896 0.447093 -1 0 0 
10149 2859 16 24.5968 18.3483 4.65771 0 0 0 
9057 1767 16 26.1049 17.1252 2.46117 -1 0 0 
9058 1768 16 26.1997 16.977 6.66049 -1 0 0 
10233 2943 16 27.4504 18.7402 4.61717 -1 0 0 
9141 1851 16 28.9456 17.208 2.47673 -1 0 0 
9142 1852 16 28.9691 17.014 6.64359 -1 0 0 
10317 3027 16 30.3632 18.5433 4.60938 -1 0 0 
9226 1936 16 31.8308 17.0305 6.69321 -1 0 0 
9225 1935 16 32.0385 17.0631 2.59251 -1 0 0 
9147 1857 16 28.9081 19.9001 2.50209 -1 0 0 
10148 2858 16 24.7448 18.5344 0.405145 0 0 0 
9063 1773 16 26.0841 20.124 2.36712 -1 0 0 
9148 1858 16 28.9063 20.0349 6.64102 -1 0 0 
9064 1774 16 25.9457 19.9515 6.69197 -1 0 0 
10316 3026 16 30.4122 18.5475 0.411117 -1 0 0 
9231 1941 16 31.8531 19.9057 2.6183 -1 0 0 
9232 1942 16 31.8676 19.9441 6.64055 -1 0 0 
10155 2865 16 24.8316 21.2541 4.47705 0 0 0 
10161 2871 16 24.5012 24.1194 4.70105 0 0 0 
10245 2955 16 27.6125 24.3039 4.61872 -1 0 0 
9153 1863 16 28.983 22.8619 2.49137 -1 0 0 
9070 1780 16 26.0316 22.8219 6.7757 -1 0 0 
9069 1779 16 26.2274 22.9594 2.43622 -1 0 0 
9154 1864 16 29.0495 23.0142 6.81146 -1 0 0 
10329 3039 16 30.4687 24.2249 4.69238 -1 0 0 
9237 1947 16 31.9071 22.9212 2.53502 -1 0 0 
9238 1948 16 32.0129 22.8533 6.84606 -1 0 0 
10239 2949 16 27.5513 21.434 4.44803 -1 0 0 
10323 3033 16 30.4134 21.4804 4.50153 -1 0 0 
10238 2948 16 27.5104 21.4202 0.31637 -1 0 0 
10322 3032 16 30.4292 21.4291 0.613163 -1 0 0 
10160 2870 16 24.5148 24.1768 0.361032 0 0 0 
10154 2864 16 24.512 21.4539 0.584717 0 0 0 
10400 3110 16 33.3488 18.4077 0.449983 -1 0 0 
10401 3111 16 33.3559 18.5015 4.65226 -1 0 0 
9393 2103 16 39.0022 18.4533 4.40101 -1 0 0 
8217 927 16 37.6489 16.8716 2.49423 -1 0 0 
8218 928 16 37.7408 16.9827 6.71903 -1 0 0 
9309 2019 16 36.2206 18.4547 4.44603 -1 0 0 
8133 843 16 34.864 17.1021 2.52414 -1 0 0 
8134 844 16 34.8012 16.9248 6.62336 -1 0 0 
9308 2018 16 36.4364 18.5877 0.476811 -1 0 0 
9392 2102 16 39.2148 18.6492 0.564864 -1 0 0 
8139 849 16 34.6843 19.8878 2.49699 -1 0 0 
8140 850 16 34.7127 19.8662 6.62616 -1 0 0 
8223 933 16 37.4695 20.1874 2.59662 -1 0 0 
8224 934 16 37.7067 19.7482 6.60492 -1 0 0 
10407 3117 16 33.3605 21.3924 4.59128 -1 0 0 
10413 3123 16 33.2875 24.1938 4.64373 -1 0 0 
9405 2115 16 39.1877 24.0817 4.62669 -1 0 0 
8146 856 16 35.041 22.8057 6.6336 -1 0 0 
8145 855 16 34.8476 22.7648 2.422 -1 0 0 
9321 2031 16 36.1817 24.2363 4.55123 -1 0 0 
8230 940 16 37.767 22.6884 6.7611 -1 0 0 
8229 939 16 37.8177 22.9381 2.54343 -1 0 0 
9399 2109 16 39.2255 21.2335 4.80643 -1 0 0 
9315 2025 16 36.4709 21.403 4.65992 -1 0 0 
9320 2030 16 36.132 24.0846 0.368797 -1 0 0 
10406 3116 16 33.3122 21.6782 0.382154 -1 0 0 
9398 2108 16 38.9063 21.3155 0.318306 -1 0 0 
9404 2114 16 39.0971 24.1893 0.384889 -1 0 0 
9314 2024 16 36.1968 21.359 0.302523 -1 0 1 
8409 1119 16 2.92869 28.5678 2.60795 0 0 0 
8404 1114 16 2.91534 25.5734 6.57627 0 0 0 
8410 1120 16 2.91163 28.5262 6.61416 0 0 0 
8403 1113 16 2.95245 25.5722 2.42084 0 0 0 
9579 2289 16 4.54014 26.9832 4.51127 0 0 0 
8487 1197 16 5.92901 25.4455 2.46642 0 0 0 
8488 1198 16 5.88394 25.4929 6.66351 0 0 0 
8493 1203 16 5.71525 28.6218 2.53826 0 0 0 
8494 1204 16 5.87478 28.4844 6.83361 0 0 0 
9663 2373 16 7.3962 26.9533 4.56175 0 0 0 
9495 2205 16 1.61201 27.0528 4.68705 0 0 0 
9585 2295 16 4.33527 29.9234 4.64628 0 0 0 
9669 2379 16 7.37761 29.7308 4.56305 0 0 0 
9578 2288 16 4.2541 27.2543 0.403412 0 0 0 
9494 2204 16 1.65799 26.9541 0.381883 0 0 0 
9501 2211 16 1.39005 29.8408 4.61435 0 0 0 
9500 2210 16 1.55567 29.8913 0.616232 0 0 0 
9662 2372 16 7.24635 27.0696 0.288032 0 0 0 
8320 1030 16 0.0576662 25.6569 6.65304 0 0 0 
9584 2294 16 4.32554 30.0252 0.255784 0 0 0 
9668 2378 16 7.13745 29.8142 0.448183 0 0 0 
8500 1210 16 5.8444 31.3146 6.62446 0 0 0 
8416 1126 16 2.86394 31.3943 6.49823 0 0 0 
8499 1209 16 5.76771 31.3772 2.5629 0 0 0 
8415 1125 16 2.78255 31.4547 2.56759 0 0 0 
8332 1042 16 0.0301633 31.5857 6.78204 0 0 0 
8571 1281 16 8.81063 25.4132 2.37988 0 0 0 
8578 1288 16 8.76922 28.5724 6.58871 0 0 0 
8577 1287 16 8.84307 28.4671 2.46742 0 0 0 
8572 1282 16 8.76009 25.7808 6.62682 0 0 0 
9747 2457 16 10.4076 27.0369 4.49736 0 0 0 
8661 1371 16 11.8128 28.2196 2.51919 0 0 0 
8655 1365 16 11.7535 25.4379 2.37752 0 0 0 
8656 1366 16 11.7177 25.7705 6.67004 0 0 0 
8662 1372 16 11.6079 28.4898 6.61225 0 0 0 
9831 2541 16 13.2329 26.948 4.62081 0 0 0 
9741 2451 16 10.2023 24.4016 4.73121 0 0 0 
8745 1455 16 14.4864 28.3921 2.57752 0 0 0 
8739 1449 16 14.4776 25.6676 2.43888 0 0 0 
8746 1456 16 14.5079 28.3845 6.68023 0 0 0 
8740 1450 16 14.5824 25.6632 6.72839 0 0 0 
9915 2625 16 16.0317 26.9358 4.68786 0 0 0 
9753 2463 16 10.0701 29.9078 4.62916 0 0 0 
9746 2456 16 10.172 26.818 0.349547 0 0 0 
9836 2546 16 13.1466 29.9469 0.394433 0 0 0 
9752 2462 16 10.3182 29.714 0.268093 0 0 0 
9837 2547 16 12.9885 29.6827 4.51877 0 0 0 
9830 2540 16 12.9028 27.0201 0.237989 0 0 0 
9920 2630 16 16.0916 29.9182 0.282147 0 0 0 
9914 2624 16 16.0199 27.0731 0.38633 0 0 0 
9921 2631 16 15.8691 29.7237 4.73442 0 0 0 
8584 1294 16 8.71223 31.4145 6.63431 0 0 0 
8583 1293 16 8.58945 31.351 2.42988 0 0 0 
8751 1461 16 14.4576 31.3853 2.54111 0 0 0 
8752 1462 16 14.4713 31.2968 6.48843 0 0 0 
8667 1377 16 11.5219 31.3615 2.48397 0 0 0 
8668 1378 16 11.5365 31.2586 6.64335 0 0 0 
8829 1539 16 17.3253 28.4404 2.41448 0 0 0 
8823 1533 16 17.2388 25.6251 2.45625 0 0 0 
8830 1540 16 17.4531 28.6707 6.83768 0 0 0 
8824 1534 16 17.2992 25.5722 6.65266 0 0 0 
9999 2709 16 18.8853 27.0354 4.36483 0 0 0 
8908 1618 16 20.1483 25.6843 6.63644 0 0 0 
8907 1617 16 20.2537 25.5268 2.5872 0 0 0 
8914 1624 16 20.262 28.4921 6.76967 0 0 0 
8913 1623 16 20.3239 28.6829 2.51208 0 0 0 
10083 2793 16 21.6025 27.1721 4.39902 0 0 0 
10077 2787 16 21.7109 24.3423 4.66487 0 0 0 
8992 1702 16 23.1987 25.7728 6.74686 0 0 0 
8998 1708 16 23.1866 28.4235 6.58426 0 0 0 
8997 1707 16 23.2881 28.5582 2.28206 0 0 0 
8991 1701 16 23.249 25.6349 2.52022 0 0 0 
10089 2799 16 21.6762 30.1018 4.54796 0 0 0 
9998 2708 16 18.9779 26.9086 0.316931 0 0 0 
10005 2715 16 18.8586 29.6693 4.72354 0 0 0 
10004 2714 16 18.9576 29.8401 0.414195 0 0 0 
10082 2792 16 21.8153 27.0531 0.557796 0 0 0 
10088 2798 16 21.7383 30.1305 0.188047 0 0 0 
8836 1546 16 17.4165 31.5907 6.68418 0 0 0 
8835 1545 16 17.2878 31.2448 2.57548 0 0 0 
8920 1630 16 20.1941 31.4167 6.70044 0 0 0 
9003 1713 16 23.1416 31.362 2.29232 0 0 0 
8919 1629 16 20.1919 31.5396 2.35049 0 0 0 
9004 1714 16 23.0616 31.4115 6.75593 0 0 0 
10166 2876 16 24.539 27.1214 0.314727 0 0 0 
10172 2882 16 24.6927 29.9134 0.302555 0 0 0 
10167 2877 16 24.5279 27.1265 4.56685 0 0 0 
9081 1791 16 26.0108 28.6263 2.53459 -1 0 0 
9082 1792 16 25.9265 28.6949 6.50526 -1 0 0 
9075 1785 16 26.0353 25.8394 2.43784 -1 0 0 
9076 1786 16 26.1784 25.8528 6.51161 -1 0 0 
10251 2961 16 27.587 27.2246 4.54891 -1 0 0 
9159 1869 16 28.8886 25.7294 2.54271 -1 0 0 
9166 1876 16 28.903 28.6221 6.59366 -1 0 0 
9165 1875 16 28.9983 28.6242 2.3793 -1 0 0 
9160 1870 16 28.9664 25.8592 6.77645 -1 0 0 
10335 3045 16 30.2704 27.0215 4.5965 -1 0 0 
9249 1959 16 31.8278 28.5983 2.66448 -1 0 0 
9243 1953 16 31.8249 25.8307 2.62691 -1 0 0 
9244 1954 16 32.0294 25.7871 6.57966 -1 0 0 
9250 1960 16 31.8085 28.5529 6.711 -1 0 0 
10257 2967 16 27.3283 30.0819 4.56862 -1 0 0 
10328 3038 16 30.4818 24.3421 0.477467 -1 0 0 
10341 3051 16 30.3373 30.1356 4.74648 -1 0 0 
10340 3050 16 30.3681 29.9745 0.449407 -1 0 0 
10173 2883 16 24.4412 30.0938 4.48339 0 0 0 
10256 2966 16 27.5373 30.0622 0.478259 -1 0 0 
10250 2960 16 27.3964 27.3888 0.378577 -1 0 0 
10244 2954 16 27.6616 24.3459 0.371837 -1 0 0 
10334 3044 16 30.3056 27.1802 0.570773 -1 0 0 
9172 1882 16 28.9566 31.5413 6.71872 -1 0 0 
9255 1965 16 32.0382 31.5152 2.52343 -1 0 0 
9171 1881 16 28.9809 31.4992 2.5792 -1 0 0 
9256 1966 16 31.8616 31.6104 6.94593 -1 0 0 
9088 1798 16 26.1411 31.6002 6.78303 -1 0 0 
9087 1797 16 26.0251 31.5982 2.63327 -1 0 0 
8325 1035 16 40.3593 28.5589 2.51399 -1 0 0 
8326 1036 16 40.3731 28.6642 6.60064 -1 0 0 
8319 1029 16 40.3172 25.632 2.43243 -1 0 0 
10419 3129 16 33.2257 27.1415 4.59691 -1 0 0 
9411 2121 16 39.003 27.0332 4.70663 -1 0 0 
8241 951 16 37.4342 28.5039 2.66798 -1 0 0 
8236 946 16 37.7437 25.7036 6.75935 -1 0 0 
8242 952 16 37.5267 28.4016 6.68125 -1 0 0 
8235 945 16 37.5907 25.658 2.6926 -1 0 0 
9327 2037 16 36.061 27.025 4.7161 -1 0 0 
8152 862 16 34.7296 25.5842 6.63172 -1 0 0 
8157 867 16 34.633 28.6706 2.80977 -1 0 0 
8151 861 16 34.6095 25.5204 2.62319 -1 0 0 
8158 868 16 34.6438 28.5761 6.77164 -1 0 0 
9417 2127 16 39.0151 29.924 4.54477 -1 0 0 
9333 2043 16 36.0787 30.017 4.73768 -1 0 0 
10425 3135 16 33.1729 29.9775 4.8093 -1 0 0 
9410 2120 16 39.008 27.1467 0.421611 -1 0 0 
9332 2042 16 36.3091 30.0126 0.428239 -1 0 0 
9326 2036 16 35.9384 27.1692 0.515366 -1 0 0 
10412 3122 16 33.1813 24.3518 0.457466 -1 0 0 
10418 3128 16 32.9807 27.1088 0.451261 -1 0 1 
9416 2126 16 38.9896 29.921 0.237451 -1 0 0 
10424 3134 16 33.3292 29.9592 0.442396 -1 0 0 
8331 1041 16 40.3718 31.529 2.53899 -1 0 0 
8248 958 16 37.7731 31.3046 6.76186 -1 0 0 
8163 873 16 34.7787 31.5134 2.68393 -1 0 0 
8164 874 16 34.8254 31.3661 6.88936 -1 0 0 
8247 957 16 37.4909 31.3868 2.52562 -1 0 0 
9674 2384 16 7.28725 32.7721 0.312894 0 0 0 
9591 2301 16 4.45551 32.7725 4.80101 0 0 0 
8422 1132 16 3.0488 34.2482 6.74152 0 0 0 
8421 1131 16 2.85769 34.1438 2.39953 0 0 0 
8427 1137 16 2.93649 36.9814 2.46599 0 0 0 
8428 1138 16 3.00716 37.0817 6.64193 0 0 0 
9597 2307 16 4.26792 35.5186 4.58896 0 0 0 
9603 2313 16 4.74171 38.3167 4.52062 0 0 0 
8505 1215 16 5.75021 34.1218 2.44172 0 0 0 
8511 1221 16 5.89449 37.0812 2.34094 0 0 0 
8512 1222 16 6.00663 37.3136 6.65338 0 0 0 
8506 1216 16 5.75921 34.3265 6.79425 0 0 0 
9687 2397 16 7.38898 38.644 4.51837 0 0 0 
9675 2385 16 7.25212 32.8158 4.60322 0 0 0 
9681 2391 16 7.19848 35.6479 4.57987 0 0 0 
9513 2223 16 1.44566 35.7893 4.48291 0 0 0 
9507 2217 16 1.52135 32.8927 4.59242 0 0 0 
9519 2229 16 1.84119 38.5524 4.59037 0 0 0 
9686 2396 16 7.27277 38.7545 0.191203 0 0 0 
9680 2390 16 7.32909 35.7557 0.168253 0 0 0 
8433 1143 16 3.17526 40.0089 2.48087 0 0 0 
9602 2312 16 4.39807 38.2618 0.272294 0 0 0 
9506 2216 16 1.25394 32.8311 0.234291 0 0 0 
8434 1144 16 3.18384 40.0191 6.51593 0 0 0 
9518 2228 16 1.56634 38.699 0.511005 0 0 0 
9590 2300 16 4.47215 32.8278 0.350343 0 0 0 
9512 2222 16 1.4169 35.6854 0.375081 0 0 0 
8518 1228 16 5.89435 40.0078 6.62558 0 0 0 
9596 2306 16 4.60089 35.4915 0.222294 0 0 0 
8350 1060 16 0.202929 40.0089 6.73718 0 0 0 
8344 1054 16 0.14159 37.208 6.44938 0 0 0 
8349 1059 16 0.308692 40.0325 2.46618 0 0 0 
8343 1053 16 0.111463 37.2025 2.55339 0 0 0 
8338 1048 16 0.124376 34.3637 6.49508 0 0 0 
8517 1227 16 5.95666 40.1992 2.37822 0 0 0 
8685 1395 16 11.6967 40.1283 2.28379 0 0 0 
9848 2558 16 12.9841 35.6685 0.170095 0 0 0 
8596 1306 16 8.84965 37.0729 6.41124 0 0 0 
8589 1299 16 8.65527 34.2116 2.42219 0 0 0 
8590 1300 16 8.62538 34.3183 6.43478 0 0 0 
8595 1305 16 8.70315 37.2465 2.43024 0 0 0 
9759 2469 16 10.0381 32.7614 4.51081 0 0 0 
9843 2553 16 12.9465 32.5757 4.66566 0 0 0 
8673 1383 16 11.5196 34.194 2.58276 0 0 0 
8674 1384 16 11.5242 34.085 6.43142 0 0 0 
9771 2481 16 10.2721 38.5941 4.38037 0 0 0 
9765 2475 16 10.2451 35.7889 4.56019 0 0 0 
8679 1389 16 11.6709 37.2539 2.26174 0 0 0 
8680 1390 16 11.5415 37.0848 6.40706 0 0 0 
9855 2565 16 13.209 38.4371 4.47511 0 0 0 
9849 2559 16 13.0173 35.5351 4.54975 0 0 0 
8763 1473 16 14.5749 37.1263 2.26097 0 0 0 
8757 1467 16 14.1943 34.1823 2.14464 0 0 0 
8758 1468 16 14.4763 34.1531 6.37987 0 0 0 
8764 1474 16 14.353 36.9924 6.52097 0 0 0 
9927 2637 16 16.008 32.6756 4.32528 0 0 0 