LAMMPS data file via write_data, version 30 Jan 2014, timestep = 2804000

11502 atoms
17 atom types
8394 bonds
16 bond types
13536 angles
30 angle types
15630 dihedrals
44 dihedral types
60 impropers
1 improper types

0.0000000000000000e+00 4.0459044929527806e+01 xlo xhi
0.0000000000000000e+00 4.0547891446707460e+01 ylo yhi
0.0000000000000000e+00 8.9439697831668127e+01 zlo zhi

Masses

1 1.008
2 1.008
3 1.008
4 1.008
5 12.011
6 12.011
7 12.011
8 12.011
9 12.011
10 14.007
11 15.9994
12 1.008
13 1.008
14 12.011
15 15.9994
16 107.868
17 107.868

Bond Coeffs

1 13.0093 1.53
2 19.9477 1.38
3 24.7177 1.235
4 9.6486 1.538
5 9.6486 1.538
6 13.3996 1.111
7 13.8766 1.43
8 13.3996 1.111
9 13.9634 1.111
10 8.45607 1.53
11 13.3129 1.1
12 16.0449 1.45
13 9.6486 1.53
14 13.3996 1.111
15 18.56 1.42
16 23.6336 0.96

Angle Coeffs

1 3.03551 106.5 0 0
2 2.51514 111 0 0
3 2.16822 120 0 0
4 3.25234 111 0 0
5 2.53032 113.5 0.48395 2.561
6 1.44967 110.1 0.977 2.179
7 1.44967 110.1 0.977 2.179
8 2.16822 116 0 0
9 2.53032 113.5 0.48395 2.561
10 2.31349 114 0.34692 2.561
11 1.49607 110.1 0.977 2.179
12 3.03551 113.5 0 0
13 1.49607 110.1 0.977 2.179
14 3.03551 113.5 0 0
15 5.20374 105.5 0 0
16 2.81869 126.7 0 0
17 2.51514 109.5 0.48395 2.561
18 1.51776 111.4 0.977 2.179
19 3.9028 104.5 0 0
20 2.08149 108 0 0
21 1.53944 109 0.23417 1.802
22 1.5394 108.4 0.23416 1.802
23 1.66949 106.8 0.23416 1.802
24 2.55844 111 0 0
25 2.81869 127.8 0 0
26 1.14916 110.1 0.977 2.179
27 3.28269 110.1 0 0
28 2.16822 106 0 0
29 1.53944 109 0.23417 1.802
30 2.38505 108.89 0 0

Dihedral Coeffs

1 0.01474 3 180 0
2 0 3 0 1
3 0.03903 1 0 1
4 0.03903 1 0 1
5 0 1 0 1
6 0.10017 3 180 0
7 0 3 0 1
8 0.00867 3 0 1
9 0.00867 3 0 1
10 0.00846 3 0 1
11 0.00867 3 0 1
12 0.04857 2 180 1
13 0.10841 2 180 1
14 0.02905 3 0 1
15 0 3 0 1
16 0.00867 3 0 1
17 0.00867 3 0 1
18 0 1 0 1
19 0.00867 3 0 1
20 0 1 0 1
21 0.01735 2 180 0
22 0.04553 3 180 0
23 0.00347 3 0 1
24 0.00824 3 0 1
25 0.09237 3 0 0
26 0.11231 2 180 1
27 0 1 0 1
28 0.00846 3 0 1
29 0.00846 3 0 1
30 0.00867 3 0 1
31 0.00867 3 0 1
32 0 3 180 1
33 0 3 0 1
34 0.00824 3 0 1
35 0 3 180 1
36 0.01735 1 180 1
37 0.00043 2 0 0
38 0.01127 3 0 0
39 0.00824 3 0 1
40 0.00607 3 0 1
41 0.00781 3 0 1
42 0.01431 1 0 1
43 0.0941 2 0 0
44 0.01951 3 0 0

Improper Coeffs

1 3.9028 0

Atoms

8368 1078 16 0.0000000000000000e+00 3.0646474431323028e+00 8.3001609025403216e+00 6.3507948556467637e+00 0 1 0
8367 1077 16 0.0000000000000000e+00 3.1132560927430197e+00 8.1303019827564942e+00 2.3065741394752663e+00 0 1 0
8361 1071 16 0.0000000000000000e+00 3.1206099686873996e+00 5.3360090006509804e+00 2.2327878538918000e+00 0 1 0
8362 1072 16 0.0000000000000000e+00 2.8527618380774502e+00 5.2374098675821852e+00 6.4333645518478662e+00 0 1 0
9537 2247 16 0.0000000000000000e+00 4.4715083387825016e+00 6.7168696724166530e+00 4.3573285989943997e+00 0 1 0
9531 2241 16 0.0000000000000000e+00 4.3893394239905712e+00 3.8085795425328404e+00 4.6434028225557489e+00 0 1 0
8452 1162 16 0.0000000000000000e+00 5.9327564552552952e+00 8.1287695856766824e+00 6.6418113645813044e+00 0 1 0
8445 1155 16 0.0000000000000000e+00 5.9734313114526039e+00 5.4867235546318396e+00 2.3569994459868475e+00 0 1 0
8451 1161 16 0.0000000000000000e+00 5.9100692056514665e+00 8.4861999291750578e+00 2.3846588432306004e+00 0 1 0
8446 1156 16 0.0000000000000000e+00 5.7815946586785234e+00 5.2722449390141097e+00 6.5610660494172039e+00 0 1 0
8356 1066 16 0.0000000000000000e+00 2.9154231600382086e+00 2.4630020531699142e+00 6.4945938835108548e+00 0 1 0
8355 1065 16 0.0000000000000000e+00 3.0530816125999691e+00 2.4130473513219881e+00 2.3843652272054925e+00 0 1 0
8440 1150 16 0.0000000000000000e+00 5.6388432919436475e+00 2.3195538434037983e+00 6.5832584681009321e+00 0 1 0
8439 1149 16 0.0000000000000000e+00 5.9164578461897523e+00 2.6903864014338081e+00 2.5130835653561334e+00 0 1 0
9615 2325 16 0.0000000000000000e+00 7.4036674037372938e+00 3.8283809382893907e+00 4.7785202372235300e+00 0 1 0
9621 2331 16 0.0000000000000000e+00 7.4351652941424184e+00 6.7411747540781333e+00 4.6209265133346999e+00 0 1 0
9453 2163 16 0.0000000000000000e+00 1.6081684157369718e+00 6.7870542108431824e+00 4.3237253854897579e+00 0 1 0
9447 2157 16 0.0000000000000000e+00 1.5535698703509566e+00 3.8670268527711693e+00 4.4403824753860262e+00 0 1 0
9609 2319 16 0.0000000000000000e+00 4.5122839979754241e+00 9.1595502925078076e-01 4.4211957906839698e+00 0 1 0
9693 2403 16 0.0000000000000000e+00 7.5031949181596653e+00 1.1022440863114380e+00 4.4779643702244263e+00 0 1 0
9525 2235 16 0.0000000000000000e+00 1.6466123615620221e+00 1.0980099165633104e+00 4.5162298683553548e+00 0 1 0
9627 2337 16 0.0000000000000000e+00 7.3221069283912623e+00 9.5201265189302440e+00 4.5258640860982453e+00 0 1 0
9543 2253 16 0.0000000000000000e+00 4.5174343050239125e+00 9.7859797234503052e+00 4.4531453225725315e+00 0 1 0
9524 2234 16 0.0000000000000000e+00 1.6805576583047848e+00 8.7890953788307291e-01 4.7958674195974060e-01 0 1 0
9459 2169 16 0.0000000000000000e+00 1.6536488881836156e+00 9.6613030642433468e+00 4.5232490099753155e+00 0 1 0
9614 2324 16 0.0000000000000000e+00 7.2696704592052903e+00 4.0116754755936608e+00 3.1533748095679365e-01 0 1 0
9536 2246 16 0.0000000000000000e+00 4.5682067378946742e+00 6.8129452281946410e+00 3.7338866370306856e-01 0 1 0
9692 2402 16 0.0000000000000000e+00 7.4772197678651695e+00 1.2411246607997142e+00 2.2045721031852311e-01 0 1 0
9608 2318 16 0.0000000000000000e+00 4.6263757073928007e+00 9.0464350240502478e-01 2.3431589253110477e-01 0 1 0
9446 2156 16 0.0000000000000000e+00 1.4718052563584862e+00 3.6851701043636860e+00 2.4548932170123750e-01 0 1 0
9626 2336 16 0.0000000000000000e+00 7.3144040543017521e+00 9.8114900965891216e+00 3.8333963508852614e-01 0 1 0
9530 2240 16 0.0000000000000000e+00 4.4829524818921058e+00 3.9303905340757330e+00 2.8294930493533194e-01 0 1 0
9452 2162 16 0.0000000000000000e+00 1.6893575886067040e+00 6.7102140802012835e+00 3.4094693042171403e-01 0 1 0
9458 2168 16 0.0000000000000000e+00 1.5448261014042977e+00 9.5050483985627370e+00 1.3667903004259888e-01 0 1 0
9620 2330 16 0.0000000000000000e+00 7.3745822820436580e+00 6.8746433297380491e+00 2.9277039255684778e-01 0 1 0
9542 2252 16 0.0000000000000000e+00 4.4493034930076725e+00 9.8542556159859984e+00 2.1831732706879198e-01 0 1 0
8284 994 16 0.0000000000000000e+00 2.2725956385102261e-01 8.2495346243734016e+00 6.4489286454428854e+00 0 1 0
8283 993 16 0.0000000000000000e+00 2.2590739387698977e-01 8.3001063138775741e+00 2.2832010849574802e+00 0 1 0
8278 988 16 0.0000000000000000e+00 5.0026469758218520e-02 5.2746534931509030e+00 6.4977702323213364e+00 0 1 0
8271 981 16 0.0000000000000000e+00 1.0337736924331635e-01 2.5374076518772095e+00 2.3838292137653734e+00 0 1 0
8272 982 16 0.0000000000000000e+00 3.3285397307640081e-02 2.3337523597076060e+00 6.6011871373022126e+00 0 1 0
9704 2414 16 0.0000000000000000e+00 1.0113788310678384e+01 6.7973193204553297e+00 1.8812804696524194e-01 0 1 0
8524 1234 16 0.0000000000000000e+00 8.9889301775730850e+00 2.2977317659303544e+00 6.6145318315121875e+00 0 1 0
8536 1246 16 0.0000000000000000e+00 8.8075683380954040e+00 8.2483630425936330e+00 6.6450007881487920e+00 0 1 0
8529 1239 16 0.0000000000000000e+00 8.8327522461551311e+00 5.4230518911883481e+00 2.4892793247415148e+00 0 1 0
8530 1240 16 0.0000000000000000e+00 8.7266412772120727e+00 5.2934991757372778e+00 6.5878887705520413e+00 0 1 0
8535 1245 16 0.0000000000000000e+00 8.7105305683279095e+00 8.2595640300267110e+00 2.2965070216385559e+00 0 1 0
8523 1233 16 0.0000000000000000e+00 8.7964728490028055e+00 2.6662799766751482e+00 2.4612289066810691e+00 0 1 0
9705 2415 16 0.0000000000000000e+00 1.0272010462732771e+01 6.7042109700347954e+00 4.5055464012343869e+00 0 1 0
8614 1324 16 0.0000000000000000e+00 1.1820236938532759e+01 5.4223919180957312e+00 6.6202812882706947e+00 0 1 0
8613 1323 16 0.0000000000000000e+00 1.1748572103406810e+01 5.5138998334323173e+00 2.3204531653250382e+00 0 1 0
8619 1329 16 0.0000000000000000e+00 1.1604665514042473e+01 8.2705106265504877e+00 2.2506743158294520e+00 0 1 0
8620 1330 16 0.0000000000000000e+00 1.1658261130030642e+01 8.3958208825494314e+00 6.6668363042914418e+00 0 1 0
9789 2499 16 0.0000000000000000e+00 1.3103928300483101e+01 6.7443075916164634e+00 4.5246917701344227e+00 0 1 0
9699 2409 16 0.0000000000000000e+00 1.0330795689240002e+01 3.9123550492278492e+00 4.5847577329537810e+00 0 1 0
9783 2493 16 0.0000000000000000e+00 1.3026742822174530e+01 3.7426125417974321e+00 4.3938615628561708e+00 0 1 0
8608 1318 16 0.0000000000000000e+00 1.1580447172816392e+01 2.4868174817430102e+00 6.5685874736129710e+00 0 1 0
8607 1317 16 0.0000000000000000e+00 1.1759715250525053e+01 2.5292112600944812e+00 2.4054000750484841e+00 0 1 0
8698 1408 16 0.0000000000000000e+00 1.4620322365096074e+01 5.3540778507233817e+00 6.5988764749649036e+00 0 1 0
8697 1407 16 0.0000000000000000e+00 1.4580211232595818e+01 5.2824910928603517e+00 2.3756697223460383e+00 0 1 0
8704 1414 16 0.0000000000000000e+00 1.4499569240676365e+01 8.0664540162414546e+00 6.6570735767082283e+00 0 1 0
8692 1402 16 0.0000000000000000e+00 1.4539535062303944e+01 2.4314869214492800e+00 6.7991947177181613e+00 0 1 0
8691 1401 16 0.0000000000000000e+00 1.4665039124011061e+01 2.5549270104206818e+00 2.2351844553152240e+00 0 1 0
8703 1413 16 0.0000000000000000e+00 1.4370139216160887e+01 8.1797681120024812e+00 2.3393854999894748e+00 0 1 0
9777 2487 16 0.0000000000000000e+00 1.0284098931037809e+01 1.0043958301815377e+00 4.3425468801318612e+00 0 1 0
9861 2571 16 0.0000000000000000e+00 1.3014560720399370e+01 1.0330134748200384e+00 4.5691244170841427e+00 0 1 0
9711 2421 16 0.0000000000000000e+00 1.0329152466479002e+01 9.5797557067054377e+00 4.3836141703822307e+00 0 1 0
9795 2505 16 0.0000000000000000e+00 1.3201224787145373e+01 9.7749133314281682e+00 4.4814081730257218e+00 0 1 0
9879 2589 16 0.0000000000000000e+00 1.5999727536912195e+01 9.7783911601219557e+00 4.7586131220261061e+00 0 1 0
9710 2420 16 0.0000000000000000e+00 1.0295582148921923e+01 9.5797513461101769e+00 1.7590418106732456e-01 0 1 0
9782 2492 16 0.0000000000000000e+00 1.3219225034997983e+01 4.0423165742389529e+00 3.6185959356904684e-01 0 1 0
9944 2654 16 0.0000000000000000e+00 1.6063623137572701e+01 1.1811547559590749e+00 2.0506835419722541e-01 0 1 0
9776 2486 16 0.0000000000000000e+00 1.0117136973058564e+01 1.0840526943483701e+00 1.0648442753133985e-01 0 1 0
9872 2582 16 0.0000000000000000e+00 1.5725267674247521e+01 6.9444386660695052e+00 2.5624857467341672e-01 0 1 0
9794 2504 16 0.0000000000000000e+00 1.3021096914969252e+01 9.6257878903587315e+00 3.3887006643536483e-01 0 1 1
9788 2498 16 0.0000000000000000e+00 1.2867631099378233e+01 6.7739820866431835e+00 8.3697955520750239e-02 0 1 0
9945 2655 16 0.0000000000000000e+00 1.5859618521318994e+01 1.1276692304356475e+00 4.3670591976818915e+00 0 1 0
9878 2588 16 0.0000000000000000e+00 1.5794865741631416e+01 9.7071867839448132e+00 2.3392329874375009e-01 0 1 0
9867 2577 16 0.0000000000000000e+00 1.5856518751378816e+01 4.0238269488080531e+00 4.4682805588466721e+00 0 1 0
9873 2583 16 0.0000000000000000e+00 1.6092443358710618e+01 6.8559838548210683e+00 4.4831982564997537e+00 0 1 0
9866 2576 16 0.0000000000000000e+00 1.5890275171459864e+01 4.0466460194802565e+00 1.2213209805940600e-01 0 1 0
9698 2408 16 0.0000000000000000e+00 1.0049992357716215e+01 3.8894035977401624e+00 3.6921558728897630e-01 0 1 0
9860 2570 16 0.0000000000000000e+00 1.3076931259898702e+01 1.1703360669791065e+00 2.2847695095869838e-01 0 1 0
10028 2738 16 0.0000000000000000e+00 1.8745337506987486e+01 8.3240088831879555e-01 3.9221162966798884e-01 0 1 0
8781 1491 16 0.0000000000000000e+00 1.7297640701930739e+01 5.4077259204150039e+00 2.1099879046755263e+00 0 1 0
8787 1497 16 0.0000000000000000e+00 1.7288928645414625e+01 8.2078451034000803e+00 2.3646785818505185e+00 0 1 0
8788 1498 16 0.0000000000000000e+00 1.7356744683407278e+01 8.2761594866941834e+00 6.5731439308513160e+00 0 1 0
8775 1485 16 0.0000000000000000e+00 1.7547409670563816e+01 2.5736249770126141e+00 2.2384054879843309e+00 0 1 0
8782 1492 16 0.0000000000000000e+00 1.7545517134041653e+01 5.3933678342749909e+00 6.6188763536755832e+00 0 1 0
8776 1486 16 0.0000000000000000e+00 1.7410228241112929e+01 2.4410776032025976e+00 6.5291106299394048e+00 0 1 0
9957 2667 16 0.0000000000000000e+00 1.9027456559145389e+01 6.7010065618155723e+00 4.4871530480149087e+00 0 1 0
8866 1576 16 0.0000000000000000e+00 2.0370388964489692e+01 5.0854552810174320e+00 6.6407332075271048e+00 0 1 0
8865 1575 16 0.0000000000000000e+00 2.0166992209431225e+01 5.2360447034149491e+00 2.2243191215901401e+00 0 1 0
8871 1581 16 0.0000000000000000e+00 2.0071348843399363e+01 8.1601546988354201e+00 2.3603232940223120e+00 0 1 0
8872 1582 16 0.0000000000000000e+00 2.0204912861070206e+01 8.0449645476182727e+00 6.4425906844796383e+00 0 1 0
9951 2661 16 0.0000000000000000e+00 1.8714807290103096e+01 4.0066055555487923e+00 4.4246146340224426e+00 0 1 0
10035 2745 16 0.0000000000000000e+00 2.1583599042289489e+01 3.9540248389794912e+00 4.2924958796096986e+00 0 1 0
10041 2751 16 0.0000000000000000e+00 2.1768701650778002e+01 6.7354662887731758e+00 4.3914422115310661e+00 0 1 0
8859 1569 16 0.0000000000000000e+00 2.0273002832578118e+01 2.2960321292345496e+00 2.4030883879739773e+00 0 1 0
8860 1570 16 0.0000000000000000e+00 2.0143713776285285e+01 2.4396698753623505e+00 6.5560230646585387e+00 0 1 0
8944 1654 16 0.0000000000000000e+00 2.3184761052966461e+01 2.5632789265715790e+00 6.4743176761544374e+00 0 1 0
8956 1666 16 0.0000000000000000e+00 2.3037366736074613e+01 8.1675802731493121e+00 6.4111008457514620e+00 0 1 0
8955 1665 16 0.0000000000000000e+00 2.3111309100584933e+01 8.2477700556141471e+00 2.4678638378667737e+00 0 1 0
8943 1653 16 0.0000000000000000e+00 2.3206933742707658e+01 2.4223965139302979e+00 2.5779020690765226e+00 0 1 0
8950 1660 16 0.0000000000000000e+00 2.3329270223405494e+01 5.2837556074121572e+00 6.5709183663691038e+00 0 1 0
8949 1659 16 0.0000000000000000e+00 2.3185843582655774e+01 5.4138985754963622e+00 2.4538134774226998e+00 0 1 0
10029 2739 16 0.0000000000000000e+00 1.8935866857110643e+01 8.4105750791400313e-01 4.4768418869202700e+00 0 1 0
10113 2823 16 0.0000000000000000e+00 2.1749164961134401e+01 1.0248885002942003e+00 4.4932662206298239e+00 0 1 0
10047 2757 16 0.0000000000000000e+00 2.1733017265343506e+01 9.7581994311590812e+00 4.2853437417866065e+00 0 1 0
9950 2660 16 0.0000000000000000e+00 1.8847121353670101e+01 3.9225909453358190e+00 2.6661272950367149e-01 0 1 0
10112 2822 16 0.0000000000000000e+00 2.1750169309618343e+01 9.9364020763528460e-01 1.9883075129417335e-01 0 1 0
10040 2750 16 0.0000000000000000e+00 2.1758924116901994e+01 6.7921757304207322e+00 4.0003655316706005e-01 0 1 0
10034 2744 16 0.0000000000000000e+00 2.1728199265046808e+01 3.6497665686585208e+00 3.4761493615077127e-01 0 1 0
9963 2673 16 0.0000000000000000e+00 1.8739764136566290e+01 9.4524350805101491e+00 4.3752740217510286e+00 0 1 0
9956 2666 16 0.0000000000000000e+00 1.8685980328277498e+01 7.0014413553714441e+00 2.6254919187418452e-01 0 1 0
9962 2672 16 0.0000000000000000e+00 1.8643105024780205e+01 9.7303612584159644e+00 2.5176491646495680e-01 0 1 0
10046 2756 16 0.0000000000000000e+00 2.1503111612888915e+01 9.5589044608891403e+00 3.8831890592057339e-01 0 1 0
10197 2907 16 0.0000000000000000e+00 2.4603590600866280e+01 8.9921321182054892e-01 4.5280668978167098e+00 0 1 0
10196 2906 16 0.0000000000000000e+00 2.4735944734612346e+01 1.1018299280561368e+00 4.4108719570362842e-01 0 1 0
10125 2835 16 0.0000000000000000e+00 2.4778785053055849e+01 6.7823150212787100e+00 4.4143978234932533e+00 0 1 0
10118 2828 16 0.0000000000000000e+00 2.4869189251859300e+01 3.8631512634638003e+00 2.2851446744427401e-01 0 1 0
10119 2829 16 0.0000000000000000e+00 2.4421821620696722e+01 3.9550106604784405e+00 4.4284415574701814e+00 0 1 0
10131 2841 16 0.0000000000000000e+00 2.4618520150217329e+01 9.7350076503892655e+00 4.4745535456570940e+00 0 1 0
9039 1749 16 0.0000000000000000e+00 2.6025281850699429e+01 8.3837649063864017e+00 2.4145479171188908e+00 -1 1 0
9040 1750 16 0.0000000000000000e+00 2.5948065412991824e+01 8.1410833567919187e+00 6.6563733923652109e+00 -1 1 0
9033 1743 16 0.0000000000000000e+00 2.6267334978186138e+01 5.2188673774360286e+00 2.4410253142494946e+00 -1 1 0
9034 1744 16 0.0000000000000000e+00 2.6020582563683764e+01 5.1924822926475818e+00 6.6893448012377643e+00 -1 1 0
10209 2919 16 0.0000000000000000e+00 2.7433701984276944e+01 6.8656577926864086e+00 4.4240463727813086e+00 -1 1 0
9123 1833 16 0.0000000000000000e+00 2.8785360022370554e+01 8.2417483679694818e+00 2.5184891794436317e+00 -1 1 0
9117 1827 16 0.0000000000000000e+00 2.9057882982378679e+01 5.1947170453312577e+00 2.5526322940892645e+00 -1 1 0
9118 1828 16 0.0000000000000000e+00 2.8987496583903226e+01 5.3824272757174727e+00 6.4728864282689216e+00 -1 1 0
9124 1834 16 0.0000000000000000e+00 2.9115720340957225e+01 8.2546225690814730e+00 6.4548239883627749e+00 -1 1 0
10203 2913 16 0.0000000000000000e+00 2.7493234425546671e+01 3.8096066771517312e+00 4.6522373422200918e+00 -1 1 0
9027 1737 16 0.0000000000000000e+00 2.6101366639628509e+01 2.5486017532729774e+00 2.6290959886334395e+00 -1 1 0
9112 1822 16 0.0000000000000000e+00 2.9056084705134250e+01 2.4617569845025868e+00 6.5304465041484043e+00 -1 1 0
9111 1821 16 0.0000000000000000e+00 2.8924117244771377e+01 2.4501659317544515e+00 2.5265365774426836e+00 -1 1 0
9028 1738 16 0.0000000000000000e+00 2.6066624085121852e+01 2.4386615877601141e+00 6.7883801895301978e+00 -1 1 0
10287 2997 16 0.0000000000000000e+00 3.0482972541608365e+01 3.8999576214630545e+00 4.4319486032407349e+00 -1 1 0
10293 3003 16 0.0000000000000000e+00 3.0452715575113526e+01 6.9738817291782951e+00 4.4261100583335269e+00 -1 1 0
9208 1918 16 0.0000000000000000e+00 3.2000482419322232e+01 8.2116077986086520e+00 6.4180328323570563e+00 -1 1 0
9202 1912 16 0.0000000000000000e+00 3.1875523246908962e+01 5.3218972257359756e+00 6.4276333171341591e+00 -1 1 0
9195 1905 16 0.0000000000000000e+00 3.1972511506935238e+01 2.7152175469603215e+00 2.4179178798103962e+00 -1 1 0
9196 1906 16 0.0000000000000000e+00 3.1902626915847463e+01 2.5546696178662831e+00 6.5752709282624471e+00 -1 1 0
9201 1911 16 0.0000000000000000e+00 3.1888752633108080e+01 5.5846443786882114e+00 2.4023441031129251e+00 -1 1 0
9207 1917 16 0.0000000000000000e+00 3.1869343545266794e+01 8.3461961507819211e+00 2.2410822553452556e+00 -1 1 0
10365 3075 16 0.0000000000000000e+00 3.0439949023350113e+01 1.0208969238147028e+00 4.4239188413519370e+00 -1 1 0
10281 2991 16 0.0000000000000000e+00 2.7476085328648015e+01 9.6548549902227332e-01 4.6761747862620497e+00 -1 1 0
10202 2912 16 0.0000000000000000e+00 2.7567389525966043e+01 3.8913359775091498e+00 3.6448853804812170e-01 -1 1 0
10280 2990 16 0.0000000000000000e+00 2.7632350339319085e+01 1.1130122824965605e+00 5.0263800131085201e-01 -1 1 0
10215 2925 16 0.0000000000000000e+00 2.7422694920835799e+01 9.8458669303038029e+00 4.5501272566125701e+00 -1 1 0
10299 3009 16 0.0000000000000000e+00 3.0339433381251251e+01 9.7234240990219671e+00 4.2807345123787677e+00 -1 1 0
10214 2924 16 0.0000000000000000e+00 2.7527536713804473e+01 9.7892339349811994e+00 4.3165207388028737e-01 -1 1 0
10298 3008 16 0.0000000000000000e+00 3.0334950570430475e+01 9.6198688791357476e+00 3.6437920375569610e-01 -1 1 0
10130 2840 16 0.0000000000000000e+00 2.4418463428506957e+01 9.8764030681924631e+00 3.3648767391879597e-01 0 1 0
10292 3002 16 0.0000000000000000e+00 3.0296313141868815e+01 6.6650504406776152e+00 3.4278932406226204e-01 -1 1 0
10286 2996 16 0.0000000000000000e+00 3.0509701960452407e+01 3.8063200231919345e+00 3.9318185787996413e-01 -1 1 0
10208 2918 16 0.0000000000000000e+00 2.7437945681908285e+01 7.0854194958728911e+00 4.3014796343831535e-01 -1 1 0
10124 2834 16 0.0000000000000000e+00 2.4563044459093142e+01 7.0047942322361045e+00 4.0513505518077514e-01 0 1 0
10364 3074 16 0.0000000000000000e+00 3.0356384376401312e+01 1.1280501193952686e+00 3.9409341968947659e-01 -1 1 0
8277 987 16 0.0000000000000000e+00 4.0453959338055832e+01 5.4191917710371156e+00 2.2693496858281299e+00 -1 1 0
10449 3159 16 0.0000000000000000e+00 3.3457515424567063e+01 1.1020050311991911e+00 4.2531519850035195e+00 -1 1 0
10371 3081 16 0.0000000000000000e+00 3.3387823468950941e+01 3.9241317276645704e+00 4.4003722542588752e+00 -1 1 0
10377 3087 16 0.0000000000000000e+00 3.3300017837323416e+01 6.9414835545117572e+00 4.3009855179351071e+00 -1 1 0
9363 2073 16 0.0000000000000000e+00 3.8973276162729007e+01 3.6649308129378944e+00 4.4689242154828781e+00 -1 1 0
9369 2079 16 0.0000000000000000e+00 3.9256824114184852e+01 6.5992872210392912e+00 4.4265394470020096e+00 -1 1 0
8199 909 16 0.0000000000000000e+00 3.7672853415993579e+01 8.2243179115563869e+00 2.2726580527694180e+00 -1 1 0
8194 904 16 0.0000000000000000e+00 3.7733405445038436e+01 5.3759821460670176e+00 6.4257251410288196e+00 -1 1 0
8200 910 16 0.0000000000000000e+00 3.7712282186296669e+01 8.2504938421513181e+00 6.5863342384387424e+00 -1 1 0
9285 1995 16 0.0000000000000000e+00 3.6400833847778124e+01 6.8931017597199551e+00 4.3979955069747909e+00 -1 1 0
8110 820 16 0.0000000000000000e+00 3.4784985217837558e+01 5.3254566030538140e+00 6.5484745967938736e+00 -1 1 0
8116 826 16 0.0000000000000000e+00 3.4759657542456502e+01 8.3887256158825831e+00 6.7282357944787403e+00 -1 1 0
8115 825 16 0.0000000000000000e+00 3.4777981143741464e+01 8.0754512607515316e+00 2.2907727827261755e+00 -1 1 0
8109 819 16 0.0000000000000000e+00 3.4808219954335435e+01 5.2650009277601661e+00 2.5125970055425610e+00 -1 1 0
8193 903 16 0.0000000000000000e+00 3.7561633988501860e+01 5.2768370040998525e+00 2.5116132115100682e+00 -1 1 0
9279 1989 16 0.0000000000000000e+00 3.6100943257852386e+01 3.8054014321030509e+00 4.6811122183070726e+00 -1 1 0
8188 898 16 0.0000000000000000e+00 3.7764508802896451e+01 2.4244540299025945e+00 6.6032059773633804e+00 -1 1 0
8187 897 16 0.0000000000000000e+00 3.7814931557965480e+01 2.4859972443820988e+00 2.3450895966462384e+00 -1 1 0
8104 814 16 0.0000000000000000e+00 3.4648267691221818e+01 2.4929566777687975e+00 6.6004241892269011e+00 -1 1 0
8103 813 16 0.0000000000000000e+00 3.5117588447609428e+01 2.2393206332648670e+00 2.4561182122529881e+00 -1 1 0
9441 2151 16 0.0000000000000000e+00 3.9135950665163108e+01 9.8588680949998742e-01 4.5212151038321871e+00 -1 1 0
9357 2067 16 0.0000000000000000e+00 3.6419794268423175e+01 9.3062813405204214e-01 4.6571636334030302e+00 -1 1 0
9375 2085 16 0.0000000000000000e+00 3.9020865926402564e+01 9.5860673946764816e+00 4.4133514716936251e+00 -1 1 0
10383 3093 16 0.0000000000000000e+00 3.3390025623733358e+01 9.6273623582339081e+00 4.3421609445581080e+00 -1 1 0
9290 2000 16 0.0000000000000000e+00 3.6182654426137312e+01 9.6581461144544996e+00 2.9095734225702546e-01 -1 1 0
10370 3080 16 0.0000000000000000e+00 3.3438173766135129e+01 3.8021675937098394e+00 4.5350071799830038e-01 -1 1 0
9362 2072 16 0.0000000000000000e+00 3.9210068253611254e+01 4.0172287459934575e+00 2.2640488702546965e-01 -1 1 0
10448 3158 16 0.0000000000000000e+00 3.3566681801627453e+01 1.1041192856227384e+00 2.3057397648887193e-01 -1 1 0
10382 3092 16 0.0000000000000000e+00 3.3449871419441713e+01 9.6897039348242338e+00 4.1603701106306906e-01 -1 1 0
9440 2150 16 0.0000000000000000e+00 3.9369254202164512e+01 1.0329623329575293e+00 2.1606424668147045e-01 -1 1 0
9291 2001 16 0.0000000000000000e+00 3.6161697582469451e+01 9.7231675276027918e+00 4.5130089946951131e+00 -1 1 0
9368 2078 16 0.0000000000000000e+00 3.9133232692360082e+01 6.7995749545982038e+00 2.9811498483123283e-01 -1 1 0
9374 2084 16 0.0000000000000000e+00 3.9008096035552100e+01 9.6791867621865233e+00 1.1153718243116253e-01 -1 1 0
10376 3086 16 0.0000000000000000e+00 3.3142471754020441e+01 6.7058116718780925e+00 2.9608371672227235e-01 -1 1 0
9278 1988 16 0.0000000000000000e+00 3.6202757455482782e+01 3.8679895330185108e+00 3.9900685957281812e-01 -1 1 0
9284 1994 16 0.0000000000000000e+00 3.6254706057000227e+01 6.6288459776681510e+00 2.4065974801935822e-01 -1 1 0
9356 2066 16 0.0000000000000000e+00 3.6562898085932417e+01 1.0479817152947193e+00 3.3246151476366165e-01 -1 1 0
9476 2186 16 0.0000000000000000e+00 1.5672158987199203e+00 1.8342870356285829e+01 1.9139436348926617e-01 0 0 0
8374 1084 16 0.0000000000000000e+00 3.0480201338458834e+00 1.1206507464170745e+01 6.7438384587985531e+00 0 0 0
8373 1083 16 0.0000000000000000e+00 3.0283512040096063e+00 1.1013538342017046e+01 2.3753809803234684e+00 0 0 0
8458 1168 16 0.0000000000000000e+00 5.8260751193175544e+00 1.1135454598426993e+01 6.5140631945588039e+00 0 0 0
8457 1167 16 0.0000000000000000e+00 5.7736355443537217e+00 1.1346797942127360e+01 2.0951528498447298e+00 0 0 0
9549 2259 16 0.0000000000000000e+00 4.4899082718243006e+00 1.2607607819471552e+01 4.6040657910655254e+00 0 0 0
8380 1090 16 0.0000000000000000e+00 2.9384489971762999e+00 1.4096719813348539e+01 6.5091785102865289e+00 0 0 0
8379 1089 16 0.0000000000000000e+00 3.1321737331314008e+00 1.3868392821946133e+01 2.3085543192913289e+00 0 0 0
8385 1095 16 0.0000000000000000e+00 3.0736647585119390e+00 1.6644830975618937e+01 2.2625116137109038e+00 0 0 0
8386 1096 16 0.0000000000000000e+00 2.8181114247951369e+00 1.6872233880565886e+01 6.5875728023751865e+00 0 0 0
9561 2271 16 0.0000000000000000e+00 4.1734534218371078e+00 1.8213730369174815e+01 4.5187946043395675e+00 0 0 0
9555 2265 16 0.0000000000000000e+00 4.2818495206725311e+00 1.5450410149849402e+01 4.2756227033416732e+00 0 0 0
8469 1179 16 0.0000000000000000e+00 5.8163719362099684e+00 1.7114432434475873e+01 2.2957237037577078e+00 0 0 0
8463 1173 16 0.0000000000000000e+00 5.7963759131882862e+00 1.4278924016046648e+01 2.3150625881347087e+00 0 0 0
8470 1180 16 0.0000000000000000e+00 5.8385002375974304e+00 1.7005119998283767e+01 6.5180230782160518e+00 0 0 0
8464 1174 16 0.0000000000000000e+00 5.9548509748899399e+00 1.3985511119327375e+01 6.5783172977701483e+00 0 0 0
9645 2355 16 0.0000000000000000e+00 7.3107780445118697e+00 1.8292702619144485e+01 4.4999467817644332e+00 0 0 0
9639 2349 16 0.0000000000000000e+00 7.4155870540810671e+00 1.5420428807109932e+01 4.3395901997283985e+00 0 0 0
9633 2343 16 0.0000000000000000e+00 7.1751487625292913e+00 1.2596397028597453e+01 4.2055548076415246e+00 0 0 0
9465 2175 16 0.0000000000000000e+00 1.5473241518762020e+00 1.2482865879861102e+01 4.3926970015310589e+00 0 0 0
9477 2187 16 0.0000000000000000e+00 1.4707437299871517e+00 1.8378266480996906e+01 4.4173170379021380e+00 0 0 0
9471 2181 16 0.0000000000000000e+00 1.4064242005516325e+00 1.5304234022164186e+01 4.3462784601192066e+00 0 0 0
9554 2264 16 0.0000000000000000e+00 4.6078642709245967e+00 1.5434562734041371e+01 9.6868091805325546e-02 0 0 0
9644 2354 16 0.0000000000000000e+00 7.2567788763024330e+00 1.8380412773635815e+01 1.9854941178413718e-01 0 0 0
9464 2174 16 0.0000000000000000e+00 1.5891406301963493e+00 1.2463100371531500e+01 2.0636222220502692e-01 0 0 0
9560 2270 16 0.0000000000000000e+00 4.5131115011723280e+00 1.8312089174227328e+01 2.5637009754762297e-01 0 0 0
8476 1186 16 0.0000000000000000e+00 5.9931949886494396e+00 1.9866412090044964e+01 6.5526576762139719e+00 0 0 0
9470 2180 16 0.0000000000000000e+00 1.5104036439578576e+00 1.5411389241569392e+01 3.3095115388419405e-01 0 0 0
8391 1101 16 0.0000000000000000e+00 2.9448515961719863e+00 1.9605781368481338e+01 2.3948449765276538e+00 0 0 0
9632 2342 16 0.0000000000000000e+00 7.2487132456990757e+00 1.2631788630452066e+01 8.9419349942001985e-02 0 0 0
9638 2348 16 0.0000000000000000e+00 7.2919595912658908e+00 1.5429822313277112e+01 2.7977249964623041e-01 0 0 0
8475 1185 16 0.0000000000000000e+00 5.8121207156471426e+00 1.9792620228821498e+01 2.3865334402844716e+00 0 0 0
8302 1012 16 0.0000000000000000e+00 3.1513153240153796e-03 1.6943064625484723e+01 6.4749247519483104e+00 0 0 0
8296 1006 16 0.0000000000000000e+00 2.6498600577537709e-02 1.3877041201500212e+01 6.5465001340218327e+00 0 0 0
8301 1011 16 0.0000000000000000e+00 1.0608938073340329e-01 1.6807515835740794e+01 2.3498678083741327e+00 0 0 0
8392 1102 16 0.0000000000000000e+00 2.9672319222066652e+00 1.9753989068364341e+01 6.7770716505466213e+00 0 0 0
8289 999 16 0.0000000000000000e+00 1.3778115987601358e-01 1.1192750335173800e+01 2.4030208796557515e+00 0 0 0
8308 1018 16 0.0000000000000000e+00 1.6745986962481066e-01 1.9750132911684226e+01 6.7934729483110958e+00 0 0 0
8290 1000 16 0.0000000000000000e+00 1.1096720520027845e-01 1.1073674733967772e+01 6.4481085396578264e+00 0 0 0
8295 1005 16 0.0000000000000000e+00 1.3657758014875460e-01 1.3890494696073292e+01 2.2449056840165378e+00 0 0 0
8307 1017 16 0.0000000000000000e+00 1.6252679061188763e-01 1.9914515817459058e+01 2.5173194104494159e+00 0 0 0
9548 2258 16 0.0000000000000000e+00 4.3749438696616068e+00 1.2682508348818128e+01 1.0933738623654220e-02 0 0 0
9884 2594 16 0.0000000000000000e+00 1.5992574161800064e+01 1.2604522545592623e+01 2.3093159470578906e-01 0 0 0
9728 2438 16 0.0000000000000000e+00 1.0114628685403858e+01 1.8335849854519655e+01 2.6601971971533944e-01 0 0 0
8541 1251 16 0.0000000000000000e+00 8.8125939154434523e+00 1.1005140759714010e+01 2.3600608666100551e+00 0 0 0
8547 1257 16 0.0000000000000000e+00 8.9416185163200250e+00 1.3835794625792373e+01 2.2358537345301768e+00 0 0 0
8548 1258 16 0.0000000000000000e+00 8.7305166620398467e+00 1.3849937715152679e+01 6.6371184270589403e+00 0 0 0
8554 1264 16 0.0000000000000000e+00 8.6263974737155174e+00 1.6787008962455523e+01 6.5117605767330895e+00 0 0 0
8542 1252 16 0.0000000000000000e+00 8.8252118777088580e+00 1.0977634441704810e+01 6.5032882613708773e+00 0 0 0
8553 1263 16 0.0000000000000000e+00 8.7296528763336738e+00 1.6993120879543017e+01 2.1767351301169948e+00 0 0 0
8710 1420 16 0.0000000000000000e+00 1.4387222928992436e+01 1.1113139919108777e+01 6.5029071928089461e+00 0 0 0
8625 1335 16 0.0000000000000000e+00 1.1574949221395094e+01 1.1177731247451272e+01 2.3150865507349807e+00 0 0 0